       N       E                     dE             d eps       ncg     rms          rms(c)
DAV:   1    -0.162948995707E+03   -0.16295E+03   -0.13938E-04   448   0.350E-02
DAV:   2    -0.162948998825E+03   -0.31178E-05   -0.31178E-05   464   0.597E-03
DAV:   3    -0.162948998857E+03   -0.32936E-07   -0.32548E-07   576   0.660E-04
DAV:   4    -0.162948998858E+03   -0.23101E-09   -0.43880E-09   496   0.779E-05
DAV:   5    -0.162948998858E+03    0.13097E-09    0.28521E-10   464   0.185E-05
DAV:   6    -0.162948998858E+03    0.56389E-10    0.44198E-10   336   0.854E-06
DAV:   7    -0.162948998858E+03   -0.68576E-09    0.47880E-10   240   0.471E-06
DAV:   8    -0.162948998858E+03    0.48021E-09    0.48704E-10   240   0.273E-06
DAV:   9    -0.162948998858E+03   -0.23283E-09    0.49141E-10   240   0.156E-06
DAV:  10    -0.162948998858E+03    0.12551E-09    0.49328E-10   240   0.920E-07
DAV:  11    -0.162948998858E+03   -0.53660E-09    0.49635E-10   240   0.533E-07
DAV:  12    -0.162948998857E+03    0.92041E-09    0.49198E-10   240   0.317E-07
DAV:  13    -0.162948998858E+03   -0.76761E-09    0.49363E-10   240   0.185E-07
DAV:  14    -0.162948998858E+03    0.29104E-10    0.49585E-10   240   0.111E-07
DAV:  15    -0.162948998858E+03    0.65120E-09    0.49047E-10   240   0.652E-08    0.121E-02
DAV:  16    -0.162948994088E+03    0.47700E-05   -0.15844E-07   432   0.733E-04    0.113E-02
DAV:  17    -0.162948988968E+03    0.51193E-05   -0.19347E-05   512   0.766E-03    0.575E-03
DAV:  18    -0.162948989646E+03   -0.67822E-06   -0.42516E-06   400   0.331E-03    0.303E-03
DAV:  19    -0.162948990146E+03   -0.49927E-06   -0.13491E-06   480   0.194E-03    0.217E-03
DAV:  20    -0.162948990237E+03   -0.91784E-07   -0.79725E-07   480   0.126E-03    0.232E-03
DAV:  21    -0.162948990269E+03   -0.31952E-07   -0.98175E-08   400   0.366E-04    0.261E-03
DAV:  22    -0.162948990180E+03    0.89336E-07   -0.18696E-07   432   0.745E-04    0.142E-03
DAV:  23    -0.162948990196E+03   -0.15871E-07   -0.17058E-07   448   0.574E-04    0.698E-04
DAV:  24    -0.162948990204E+03   -0.84965E-08   -0.10277E-08   432   0.143E-04
   1 F= -.16346637E+03 E0= -.16346637E+03  d E =-.204896E-10
       N       E                     dE             d eps       ncg     rms          rms(c)
DAV:   1    -0.162943272856E+03    0.57173E-02   -0.93491E-01   384   0.104E+00    0.179E-01
DAV:   2    -0.162943663862E+03   -0.39101E-03   -0.52692E-03   512   0.899E-02    0.178E-01
DAV:   3    -0.162943604158E+03    0.59704E-04   -0.47070E-05   528   0.788E-03    0.176E-01
DAV:   4    -0.162943082893E+03    0.52127E-03   -0.23702E-03   480   0.682E-02    0.548E-02
DAV:   5    -0.162943186314E+03   -0.10342E-03   -0.52713E-04   496   0.255E-02    0.509E-02
DAV:   6    -0.162943187441E+03   -0.11270E-05   -0.20512E-05   464   0.509E-03    0.524E-02
DAV:   7    -0.162943193293E+03   -0.58522E-05   -0.10120E-06   560   0.124E-03    0.535E-02
DAV:   8    -0.162943117898E+03    0.75395E-04   -0.20623E-04   432   0.213E-02    0.237E-02
DAV:   9    -0.162943120479E+03   -0.25810E-05   -0.87493E-05   496   0.113E-02    0.163E-02
DAV:  10    -0.162943122067E+03   -0.15883E-05   -0.45741E-06   432   0.255E-03    0.155E-02
DAV:  11    -0.162943122177E+03   -0.10981E-06   -0.60334E-07   464   0.109E-03    0.151E-02
DAV:  12    -0.162943118773E+03    0.34043E-05   -0.21391E-05   432   0.660E-03    0.954E-03
DAV:  13    -0.162943119355E+03   -0.58174E-06   -0.32554E-06   432   0.213E-03    0.870E-03
DAV:  14    -0.162943119210E+03    0.14428E-06   -0.21299E-07   464   0.620E-04    0.752E-03
DAV:  15    -0.162943118852E+03    0.35779E-06   -0.16627E-06   416   0.174E-03    0.365E-03
DAV:  16    -0.162943118850E+03    0.28476E-08   -0.39998E-07   416   0.808E-04    0.254E-03
DAV:  17    -0.162943118895E+03   -0.45774E-07   -0.26203E-07   464   0.838E-04    0.227E-03
DAV:  18    -0.162943118949E+03   -0.53248E-07   -0.12281E-07   432   0.486E-04    0.157E-03
DAV:  19    -0.162943118951E+03   -0.23765E-08   -0.10730E-08   464   0.136E-04
   2 F= -.16346052E+03 E0= -.16346052E+03  d E =-.193353E-10
       N       E                     dE             d eps       ncg     rms          rms(c)
DAV:   1    -0.162943832788E+03   -0.71384E-03   -0.37357E+00   384   0.208E+00    0.358E-01
DAV:   2    -0.162945552743E+03   -0.17200E-02   -0.21596E-02   496   0.180E-01    0.356E-01
DAV:   3    -0.162945369394E+03    0.18335E-03   -0.20414E-04   560   0.168E-02    0.352E-01
DAV:   4    -0.162943154349E+03    0.22150E-02   -0.81758E-03   512   0.125E-01    0.125E-01
DAV:   5    -0.162943601222E+03   -0.44687E-03   -0.24916E-03   560   0.578E-02    0.103E-01
DAV:   6    -0.162943617013E+03   -0.15791E-04   -0.15486E-04   448   0.140E-02    0.106E-01
DAV:   7    -0.162943829758E+03   -0.21274E-03   -0.90017E-05   560   0.129E-02    0.117E-01
DAV:   8    -0.162943261178E+03    0.56858E-03   -0.18605E-03   512   0.628E-02    0.469E-02
DAV:   9    -0.162943296617E+03   -0.35440E-04   -0.40945E-04   480   0.229E-02    0.359E-02
DAV:  10    -0.162943297810E+03   -0.11923E-05   -0.70138E-06   432   0.340E-03    0.338E-02
DAV:  11    -0.162943289540E+03    0.82701E-05   -0.16527E-05   432   0.632E-03    0.265E-02
DAV:  12    -0.162943285047E+03    0.44929E-05   -0.55758E-05   416   0.116E-02    0.201E-02
DAV:  13    -0.162943285210E+03   -0.16318E-06   -0.93551E-06   480   0.358E-03    0.178E-02
DAV:  14    -0.162943283223E+03    0.19871E-05   -0.70436E-06   432   0.390E-03    0.117E-02
DAV:  15    -0.162943284273E+03   -0.10499E-05   -0.46061E-06   448   0.301E-03    0.923E-03
DAV:  16    -0.162943284170E+03    0.10251E-06   -0.60210E-07   416   0.859E-04    0.869E-03
DAV:  17    -0.162943284116E+03    0.53707E-07   -0.20854E-08   480   0.211E-04    0.858E-03
DAV:  18    -0.162943284044E+03    0.72127E-07   -0.12834E-06   416   0.185E-03    0.556E-03
DAV:  19    -0.162943284247E+03   -0.20314E-06   -0.36872E-07   464   0.746E-04    0.503E-03
DAV:  20    -0.162943284239E+03    0.83810E-08   -0.13688E-08   416   0.155E-04
   3 F= -.16346063E+03 E0= -.16346063E+03  d E =-.219852E-10
       N       E                     dE             d eps       ncg     rms          rms(c)
DAV:   1    -0.162943789158E+03   -0.50491E-03   -0.18883E+00   384   0.144E+00    0.256E-01
DAV:   2    -0.162944463089E+03   -0.67393E-03   -0.97136E-03   496   0.118E-01    0.260E-01
DAV:   3    -0.162944385474E+03    0.77615E-04   -0.83821E-05   576   0.108E-02    0.260E-01
DAV:   4    -0.162944490306E+03   -0.10483E-03   -0.11329E-05   544   0.450E-03    0.269E-01
DAV:   5    -0.162943359640E+03    0.11307E-02   -0.83386E-03   464   0.124E-01    0.702E-02
DAV:   6    -0.162943485637E+03   -0.12600E-03   -0.88925E-04   480   0.321E-02    0.664E-02
DAV:   7    -0.162943457127E+03    0.28510E-04   -0.10176E-05   480   0.465E-03    0.637E-02
DAV:   8    -0.162943319596E+03    0.13753E-03   -0.25471E-04   448   0.279E-02    0.384E-02
DAV:   9    -0.162943297371E+03    0.22225E-04   -0.13432E-04   480   0.156E-02    0.287E-02
DAV:  10    -0.162943299332E+03   -0.19611E-05   -0.12800E-05   448   0.425E-03    0.283E-02
DAV:  11    -0.162943300411E+03   -0.10794E-05   -0.48906E-07   496   0.115E-03    0.278E-02
DAV:  12    -0.162943292550E+03    0.78609E-05   -0.77927E-05   432   0.135E-02    0.150E-02
DAV:  13    -0.162943295198E+03   -0.26482E-05   -0.14984E-05   464   0.466E-03    0.177E-02
DAV:  14    -0.162943294578E+03    0.62057E-06   -0.35250E-07   432   0.813E-04    0.177E-02
DAV:  15    -0.162943294457E+03    0.12118E-06   -0.11597E-05   400   0.520E-03    0.268E-02
DAV:  16    -0.162943294353E+03    0.10350E-06   -0.40432E-06   480   0.264E-03    0.315E-02
DAV:  17    -0.162943292529E+03    0.18246E-05   -0.79938E-07   416   0.142E-03    0.297E-02
DAV:  18    -0.162943287326E+03    0.52021E-05   -0.69736E-06   512   0.468E-03    0.275E-02
DAV:  19    -0.162943287385E+03   -0.58551E-07   -0.26411E-06   432   0.193E-03    0.249E-02
DAV:  20    -0.162943287616E+03   -0.23142E-06   -0.65047E-08   448   0.324E-04    0.244E-02
DAV:  21    -0.162943287523E+03    0.93276E-07   -0.64150E-08   432   0.406E-04    0.235E-02
DAV:  22    -0.162943287293E+03    0.23035E-06   -0.11922E-06   416   0.190E-03    0.193E-02
DAV:  23    -0.162943287247E+03    0.45836E-07   -0.54743E-07   480   0.104E-03    0.174E-02
DAV:  24    -0.162943287369E+03   -0.12183E-06   -0.41247E-08   464   0.282E-04    0.172E-02
DAV:  25    -0.162943287449E+03   -0.79780E-07   -0.17405E-08   432   0.217E-04    0.166E-02
DAV:  26    -0.162943287951E+03   -0.50212E-06   -0.13503E-06   400   0.188E-03    0.107E-02
DAV:  27    -0.162943288051E+03   -0.10034E-06   -0.27693E-07   480   0.667E-04    0.100E-02
DAV:  28    -0.162943288132E+03   -0.80949E-07   -0.20896E-09   416   0.698E-05    0.100E-02
DAV:  29    -0.162943288241E+03   -0.10873E-06   -0.25549E-08   432   0.214E-04    0.924E-03
DAV:  30    -0.162943288459E+03   -0.21876E-06   -0.10037E-07   432   0.410E-04    0.770E-03
DAV:  31    -0.162943288546E+03   -0.86592E-07   -0.15291E-08   464   0.159E-04    0.722E-03
DAV:  32    -0.162943288667E+03   -0.12065E-06   -0.22843E-08   432   0.215E-04    0.629E-03
DAV:  33    -0.162943289081E+03   -0.41424E-06   -0.35229E-07   432   0.798E-04    0.283E-03
DAV:  34    -0.162943289152E+03   -0.70995E-07   -0.24093E-08   480   0.210E-04    0.254E-03
DAV:  35    -0.162943289150E+03    0.23938E-08    0.13358E-10   400   0.345E-05
   4 F= -.16346060E+03 E0= -.16346060E+03  d E =-.128027E-10
       N       E                     dE             d eps       ncg     rms          rms(c)
DAV:   1    -0.162943939498E+03   -0.65035E-03   -0.36887E+00   384   0.205E+00    0.355E-01
DAV:   2    -0.162945310647E+03   -0.13711E-02   -0.18582E-02   512   0.165E-01    0.357E-01
DAV:   3    -0.162945135530E+03    0.17512E-03   -0.16856E-04   528   0.141E-02    0.355E-01
DAV:   4    -0.162943277022E+03    0.18585E-02   -0.23735E-03   528   0.645E-02    0.217E-01
DAV:   5    -0.162943293999E+03   -0.16977E-04   -0.55364E-03   496   0.939E-02    0.103E-01
DAV:   6    -0.162943420509E+03   -0.12651E-03   -0.82955E-04   480   0.305E-02    0.118E-01
DAV:   7    -0.162943275129E+03    0.14538E-03   -0.34133E-05   448   0.951E-03    0.109E-01
DAV:   8    -0.162943016738E+03    0.25839E-03   -0.11864E-03   448   0.502E-02    0.508E-02
DAV:   9    -0.162943055528E+03   -0.38789E-04   -0.20847E-04   432   0.166E-02    0.442E-02
DAV:  10    -0.162943058256E+03   -0.27287E-05   -0.60751E-06   448   0.286E-03    0.432E-02
DAV:  11    -0.162943021049E+03    0.37207E-04   -0.71823E-05   448   0.114E-02    0.298E-02
DAV:  12    -0.162943023579E+03   -0.25299E-05   -0.53204E-05   416   0.929E-03    0.188E-02
DAV:  13    -0.162943023980E+03   -0.40138E-06   -0.55864E-06   480   0.292E-03    0.172E-02
DAV:  14    -0.162943021760E+03    0.22205E-05   -0.13128E-05   432   0.492E-03    0.102E-02
DAV:  15    -0.162943021466E+03    0.29325E-06   -0.94919E-06   416   0.401E-03    0.459E-03
DAV:  16    -0.162943021581E+03   -0.11468E-06   -0.12763E-06   480   0.122E-03    0.454E-03
DAV:  17    -0.162943021364E+03    0.21683E-06   -0.81807E-07   432   0.152E-03    0.271E-03
DAV:  18    -0.162943021454E+03   -0.89363E-07   -0.44366E-07   416   0.886E-04    0.210E-03
DAV:  19    -0.162943021463E+03   -0.97380E-08   -0.34617E-08   432   0.250E-04
   5 F= -.16346047E+03 E0= -.16346047E+03  d E =-.175219E-10
       N       E                     dE             d eps       ncg     rms          rms(c)
DAV:   1    -0.162942739322E+03    0.28213E-03   -0.18748E+00   384   0.145E+00    0.259E-01
DAV:   2    -0.162943365995E+03   -0.62667E-03   -0.92944E-03   496   0.119E-01    0.261E-01
DAV:   3    -0.162943283402E+03    0.82593E-04   -0.86115E-05   560   0.109E-02    0.260E-01
DAV:   4    -0.162942840154E+03    0.44325E-03   -0.15871E-04   512   0.184E-02    0.224E-01
DAV:   5    -0.162942261635E+03    0.57852E-03   -0.53686E-03   448   0.105E-01    0.664E-02
DAV:   6    -0.162942255356E+03    0.62791E-05   -0.72729E-04   464   0.323E-02    0.587E-02
DAV:   7    -0.162942230409E+03    0.24947E-04   -0.42800E-05   448   0.950E-03    0.475E-02
DAV:   8    -0.162942213210E+03    0.17199E-04   -0.99703E-05   448   0.158E-02    0.302E-02
DAV:   9    -0.162942198451E+03    0.14759E-04   -0.61530E-05   480   0.113E-02    0.214E-02
DAV:  10    -0.162942198737E+03   -0.28539E-06   -0.25292E-05   432   0.702E-03    0.133E-02
DAV:  11    -0.162942200378E+03   -0.16413E-05   -0.55549E-06   464   0.336E-03    0.119E-02
DAV:  12    -0.162942198749E+03    0.16291E-05   -0.29027E-06   432   0.282E-03    0.864E-03
DAV:  13    -0.162942199508E+03   -0.75902E-06   -0.11096E-05   416   0.480E-03    0.728E-03
DAV:  14    -0.162942198653E+03    0.85516E-06   -0.27337E-06   464   0.285E-03    0.495E-03
DAV:  15    -0.162942198716E+03   -0.63404E-07   -0.55768E-07   432   0.982E-04    0.388E-03
DAV:  16    -0.162942198786E+03   -0.69756E-07   -0.60844E-07   416   0.122E-03    0.176E-03
DAV:  17    -0.162942198848E+03   -0.62300E-07   -0.14876E-07   464   0.579E-04    0.144E-03
DAV:  18    -0.162942198853E+03   -0.52141E-08   -0.11388E-08   448   0.140E-04
   6 F= -.16345949E+03 E0= -.16345949E+03  d E =-.136640E-10
       N       E                     dE             d eps       ncg     rms          rms(c)
DAV:   1    -0.162943281594E+03   -0.10827E-02   -0.38420E+00   464   0.206E+00    0.374E-01
DAV:   2    -0.162944548060E+03   -0.12665E-02   -0.18063E-02   464   0.162E-01    0.373E-01
DAV:   3    -0.162944345225E+03    0.20283E-03   -0.15684E-04   592   0.153E-02    0.369E-01
DAV:   4    -0.162941916230E+03    0.24290E-02   -0.92317E-03   464   0.150E-01    0.112E-01
DAV:   5    -0.162942334894E+03   -0.41866E-03   -0.23952E-03   512   0.578E-02    0.878E-02
DAV:   6    -0.162942401208E+03   -0.66314E-04   -0.11862E-04   464   0.132E-02    0.928E-02
DAV:   7    -0.162942222248E+03    0.17896E-03   -0.92089E-05   448   0.178E-02    0.810E-02
DAV:   8    -0.162942121295E+03    0.10095E-03   -0.86878E-04   448   0.529E-02    0.331E-02
DAV:   9    -0.162942143688E+03   -0.22393E-04   -0.18501E-04   480   0.169E-02    0.328E-02
DAV:  10    -0.162942143254E+03    0.43348E-06   -0.21364E-06   432   0.195E-03    0.331E-02
DAV:  11    -0.162942142317E+03    0.93718E-06   -0.82701E-07   416   0.127E-03    0.311E-02
DAV:  12    -0.162942122292E+03    0.20026E-04   -0.97768E-05   432   0.135E-02    0.152E-02
DAV:  13    -0.162942123407E+03   -0.11159E-05   -0.10917E-05   432   0.394E-03    0.130E-02
DAV:  14    -0.162942121583E+03    0.18247E-05   -0.90773E-06   432   0.428E-03    0.795E-03
DAV:  15    -0.162942121885E+03   -0.30173E-06   -0.10104E-05   448   0.499E-03    0.781E-03
DAV:  16    -0.162942122008E+03   -0.12396E-06   -0.15191E-06   416   0.159E-03    0.850E-03
DAV:  17    -0.162942121898E+03    0.11071E-06   -0.25468E-08   448   0.235E-04    0.827E-03
DAV:  18    -0.162942121499E+03    0.39917E-06   -0.38627E-06   416   0.322E-03    0.361E-03
DAV:  19    -0.162942121671E+03   -0.17278E-06   -0.49896E-07   448   0.105E-03    0.354E-03
DAV:  20    -0.162942121703E+03   -0.31229E-07   -0.37054E-08   432   0.235E-04    0.360E-03
DAV:  21    -0.162942121733E+03   -0.30829E-07   -0.15303E-07   432   0.691E-04    0.260E-03
DAV:  22    -0.162942121837E+03   -0.10406E-06   -0.48371E-07   448   0.119E-03    0.195E-03
DAV:  23    -0.162942121875E+03   -0.37950E-07   -0.75405E-08   400   0.364E-04    0.188E-03
DAV:  24    -0.162942121868E+03    0.74233E-08   -0.11078E-07   464   0.472E-04    0.131E-03
DAV:  25    -0.162942121865E+03    0.25602E-08   -0.29118E-08   480   0.286E-04
   7 F= -.16345958E+03 E0= -.16345958E+03  d E =-.170920E-10
       N       E                     dE             d eps       ncg     rms          rms(c)
DAV:   1    -0.162947766050E+03   -0.56442E-02   -0.10092E+00   416   0.108E+00    0.199E-01
DAV:   2    -0.162948165186E+03   -0.39914E-03   -0.58872E-03   464   0.894E-02    0.201E-01
DAV:   3    -0.162948111363E+03    0.53823E-04   -0.53329E-05   560   0.868E-03    0.201E-01
DAV:   4    -0.162947928530E+03    0.18283E-03   -0.53192E-05   528   0.119E-02    0.179E-01
DAV:   5    -0.162947630736E+03    0.29779E-03   -0.30429E-03   448   0.886E-02    0.506E-02
DAV:   6    -0.162947636540E+03   -0.58043E-05   -0.43012E-04   480   0.252E-02    0.433E-02
DAV:   7    -0.162947619977E+03    0.16563E-04   -0.43060E-05   448   0.118E-02    0.310E-02
DAV:   8    -0.162947636288E+03   -0.16311E-04   -0.44993E-05   432   0.106E-02    0.192E-02
DAV:   9    -0.162947632541E+03    0.37470E-05   -0.79801E-06   464   0.405E-03    0.167E-02
DAV:  10    -0.162947632772E+03   -0.23113E-06   -0.36061E-06   432   0.287E-03    0.130E-02
DAV:  11    -0.162947630663E+03    0.21087E-05   -0.63918E-06   432   0.429E-03    0.923E-03
DAV:  12    -0.162947629940E+03    0.72384E-06   -0.38099E-06   464   0.263E-03    0.645E-03
DAV:  13    -0.162947629933E+03    0.64983E-08   -0.26641E-06   432   0.274E-03    0.359E-03
DAV:  14    -0.162947630077E+03   -0.14435E-06   -0.91163E-07   416   0.137E-03    0.325E-03
DAV:  15    -0.162947630039E+03    0.38573E-07   -0.13634E-07   496   0.472E-04    0.322E-03
DAV:  16    -0.162947629969E+03    0.69764E-07   -0.25679E-07   416   0.850E-04    0.207E-03
DAV:  17    -0.162947630055E+03   -0.85630E-07   -0.12902E-07   416   0.592E-04    0.156E-03
DAV:  18    -0.162947630074E+03   -0.19249E-07   -0.18598E-08   480   0.173E-04    0.151E-03
DAV:  19    -0.162947630067E+03    0.66284E-08   -0.32191E-08   416   0.316E-04
   8 F= -.16346522E+03 E0= -.16346522E+03  d E =-.177886E-10
       N       E                     dE             d eps       ncg     rms          rms(c)
DAV:   1    -0.162948082338E+03   -0.45226E-03   -0.28104E-01   384   0.504E-01    0.175E-01
DAV:   2    -0.162948160757E+03   -0.78419E-04   -0.19237E-03   432   0.546E-02    0.175E-01
DAV:   3    -0.162948128198E+03    0.32558E-04   -0.17202E-05   496   0.453E-03    0.173E-01
DAV:   4    -0.162948058018E+03    0.70181E-04   -0.79455E-04   432   0.443E-02    0.920E-02
DAV:   5    -0.162948174876E+03   -0.11686E-03   -0.43655E-04   496   0.278E-02    0.771E-02
DAV:   6    -0.162948203472E+03   -0.28596E-04   -0.40119E-05   448   0.884E-03    0.859E-02
DAV:   7    -0.162948134463E+03    0.69009E-04   -0.54495E-04   416   0.348E-02    0.300E-02
DAV:   8    -0.162948167876E+03   -0.33413E-04   -0.84676E-05   432   0.133E-02    0.242E-02
DAV:   9    -0.162948172068E+03   -0.41922E-05   -0.17434E-05   480   0.521E-03    0.274E-02
DAV:  10    -0.162948155840E+03    0.16228E-04   -0.58380E-05   448   0.118E-02    0.104E-02
DAV:  11    -0.162948158807E+03   -0.29675E-05   -0.94317E-06   448   0.446E-03    0.101E-02
DAV:  12    -0.162948159174E+03   -0.36682E-06   -0.11575E-06   448   0.132E-03    0.105E-02
DAV:  13    -0.162948158144E+03    0.10299E-05   -0.44253E-06   432   0.335E-03    0.508E-03
DAV:  14    -0.162948158417E+03   -0.27293E-06   -0.22235E-06   464   0.204E-03    0.251E-03
DAV:  15    -0.162948158453E+03   -0.35514E-07   -0.16432E-07   416   0.528E-04    0.239E-03
DAV:  16    -0.162948158466E+03   -0.13251E-07   -0.34035E-08   416   0.287E-04    0.232E-03
DAV:  17    -0.162948158541E+03   -0.75182E-07   -0.41889E-07   416   0.904E-04    0.129E-03
DAV:  18    -0.162948158569E+03   -0.27986E-07   -0.65123E-08   448   0.357E-04    0.132E-03
DAV:  19    -0.162948158571E+03   -0.16480E-08   -0.45311E-09   416   0.885E-05
   9 F= -.16346532E+03 E0= -.16346532E+03  d E =-.132516E-10
       N       E                     dE             d eps       ncg     rms          rms(c)
DAV:   1    -0.162945567507E+03    0.25911E-02   -0.14424E-01   496   0.393E-01    0.193E-01
DAV:   2    -0.162945735336E+03   -0.16783E-03   -0.27554E-03   432   0.673E-02    0.199E-01
DAV:   3    -0.162945754074E+03   -0.18738E-04   -0.27391E-05   464   0.636E-03    0.206E-01
DAV:   4    -0.162945272458E+03    0.48162E-03   -0.33213E-03   496   0.822E-02    0.787E-02
DAV:   5    -0.162945314405E+03   -0.41947E-04   -0.47944E-04   432   0.258E-02    0.883E-02
DAV:   6    -0.162945315422E+03   -0.10175E-05   -0.50800E-06   448   0.265E-03    0.926E-02
DAV:   7    -0.162945254060E+03    0.61362E-04   -0.39988E-04   448   0.314E-02    0.316E-02
DAV:   8    -0.162945264680E+03   -0.10620E-04   -0.78544E-05   480   0.100E-02    0.260E-02
DAV:   9    -0.162945265304E+03   -0.62368E-06   -0.48625E-06   432   0.372E-03    0.262E-02
DAV:  10    -0.162945259849E+03    0.54553E-05   -0.53304E-05   432   0.980E-03    0.152E-02
DAV:  11    -0.162945261104E+03   -0.12556E-05   -0.73677E-06   464   0.325E-03    0.139E-02
DAV:  12    -0.162945261115E+03   -0.10555E-07   -0.11199E-07   416   0.402E-04    0.137E-02
DAV:  13    -0.162945261151E+03   -0.36549E-07   -0.21992E-08   496   0.258E-04    0.133E-02
DAV:  14    -0.162945260171E+03    0.97995E-06   -0.14646E-05   416   0.481E-03    0.599E-03
DAV:  15    -0.162945260517E+03   -0.34539E-06   -0.13827E-06   432   0.155E-03    0.534E-03
DAV:  16    -0.162945260469E+03    0.47921E-07   -0.10054E-07   464   0.409E-04    0.477E-03
DAV:  17    -0.162945260614E+03   -0.14543E-06   -0.23016E-07   432   0.782E-04    0.381E-03
DAV:  18    -0.162945260619E+03   -0.48976E-08   -0.19676E-07   464   0.580E-04    0.294E-03
DAV:  19    -0.162945260606E+03    0.13221E-07   -0.19989E-08   416   0.174E-04    0.289E-03
DAV:  20    -0.162945260599E+03    0.66548E-08   -0.95056E-09   416   0.134E-04
  10 F= -.16346269E+03 E0= -.16346269E+03  d E =-.199159E-10
       N       E                     dE             d eps       ncg     rms          rms(c)
DAV:   1    -0.162946382503E+03   -0.11219E-02   -0.28190E-01   528   0.537E-01    0.278E-01
DAV:   2    -0.162946655564E+03   -0.27306E-03   -0.46439E-03   432   0.919E-02    0.280E-01
DAV:   3    -0.162946595031E+03    0.60533E-04   -0.27582E-05   496   0.616E-03    0.280E-01
DAV:   4    -0.162946354673E+03    0.24036E-03   -0.61022E-05   496   0.109E-02    0.257E-01
DAV:   5    -0.162945846088E+03    0.50858E-03   -0.63431E-03   528   0.109E-01    0.121E-01
DAV:   6    -0.162945666771E+03    0.17932E-03   -0.10419E-03   416   0.476E-02    0.910E-02
DAV:   7    -0.162945741514E+03   -0.74743E-04   -0.82854E-04   464   0.388E-02    0.460E-02
DAV:   8    -0.162945708597E+03    0.32917E-04   -0.28222E-04   464   0.275E-02    0.304E-02
DAV:   9    -0.162945718666E+03   -0.10069E-04   -0.69770E-05   448   0.852E-03    0.328E-02
DAV:  10    -0.162945703829E+03    0.14837E-04   -0.10307E-04   528   0.139E-02    0.157E-02
DAV:  11    -0.162945703768E+03    0.60909E-07   -0.19586E-05   432   0.748E-03    0.117E-02
DAV:  12    -0.162945704518E+03   -0.75009E-06   -0.41756E-06   512   0.225E-03    0.128E-02
DAV:  13    -0.162945704471E+03    0.47284E-07   -0.10512E-07   448   0.377E-04    0.130E-02
DAV:  14    -0.162945705214E+03   -0.74309E-06   -0.11542E-06   432   0.187E-03    0.112E-02
DAV:  15    -0.162945705684E+03   -0.47003E-06   -0.14472E-05   432   0.538E-03    0.693E-03
DAV:  16    -0.162945706146E+03   -0.46149E-06   -0.29796E-06   400   0.218E-03    0.860E-03
DAV:  17    -0.162945705968E+03    0.17778E-06   -0.18722E-07   432   0.727E-04    0.761E-03
DAV:  18    -0.162945706194E+03   -0.22565E-06   -0.24612E-06   416   0.195E-03    0.291E-03
DAV:  19    -0.162945706432E+03   -0.23797E-06   -0.38722E-07   464   0.774E-04    0.193E-03
DAV:  20    -0.162945706517E+03   -0.85645E-07   -0.24336E-08   432   0.200E-04    0.155E-03
DAV:  21    -0.162945706714E+03   -0.19675E-06   -0.36358E-07   416   0.895E-04    0.149E-03
DAV:  22    -0.162945706684E+03    0.30126E-07   -0.51368E-08   448   0.359E-04    0.130E-03
DAV:  23    -0.162945706671E+03    0.13079E-07   -0.38751E-08   432   0.245E-04    0.821E-04
DAV:  24    -0.162945706706E+03   -0.35359E-07   -0.18343E-08   416   0.190E-04    0.511E-04
DAV:  25    -0.162945706707E+03   -0.80126E-09   -0.27435E-08   400   0.235E-04
  11 F= -.16346303E+03 E0= -.16346303E+03  d E =-.212451E-10
       N       E                     dE             d eps       ncg     rms          rms(c)
DAV:   1    -0.162948616076E+03   -0.29094E-02   -0.13783E-01   464   0.377E-01    0.176E-01
DAV:   2    -0.162948729556E+03   -0.11348E-03   -0.20132E-03   432   0.576E-02    0.177E-01
DAV:   3    -0.162948689198E+03    0.40357E-04   -0.11857E-05   480   0.412E-03    0.175E-01
DAV:   4    -0.162948385277E+03    0.30392E-03   -0.15934E-03   496   0.550E-02    0.789E-02
DAV:   5    -0.162948471455E+03   -0.86178E-04   -0.45217E-04   464   0.245E-02    0.800E-02
DAV:   6    -0.162948481478E+03   -0.10023E-04   -0.16789E-05   416   0.502E-03    0.852E-02
DAV:   7    -0.162948390239E+03    0.91239E-04   -0.29716E-04   576   0.259E-02    0.526E-02
DAV:   8    -0.162948421842E+03   -0.31603E-04   -0.12503E-04   432   0.141E-02    0.163E-02
DAV:   9    -0.162948420886E+03    0.95561E-06   -0.13750E-05   464   0.582E-03    0.142E-02
DAV:  10    -0.162948422796E+03   -0.19092E-05   -0.11462E-05   448   0.464E-03    0.148E-02
DAV:  11    -0.162948421026E+03    0.17693E-05   -0.18695E-05   416   0.621E-03    0.590E-03
DAV:  12    -0.162948421254E+03   -0.22741E-06   -0.28542E-06   464   0.233E-03    0.490E-03
DAV:  13    -0.162948421367E+03   -0.11379E-06   -0.13588E-06   432   0.163E-03    0.411E-03
DAV:  14    -0.162948421425E+03   -0.57733E-07   -0.16798E-06   416   0.213E-03    0.185E-03
DAV:  15    -0.162948421451E+03   -0.25712E-07   -0.30556E-07   432   0.736E-04    0.174E-03
DAV:  16    -0.162948421435E+03    0.15889E-07   -0.79750E-08   432   0.405E-04    0.144E-03
DAV:  17    -0.162948421483E+03   -0.47795E-07   -0.11563E-07   416   0.566E-04    0.918E-04
DAV:  18    -0.162948421480E+03    0.28422E-08   -0.15829E-08   416   0.174E-04
  12 F= -.16346567E+03 E0= -.16346567E+03  d E =-.174887E-10
       N       E                     dE             d eps       ncg     rms          rms(c)
DAV:   1    -0.162947868114E+03    0.55337E-03   -0.27878E-01   384   0.491E-01    0.160E-01
DAV:   2    -0.162947919100E+03   -0.50986E-04   -0.14125E-03   496   0.433E-02    0.155E-01
DAV:   3    -0.162947903943E+03    0.15157E-04   -0.20748E-05   528   0.602E-03    0.143E-01
DAV:   4    -0.162948134227E+03   -0.23028E-03   -0.85923E-04   432   0.439E-02    0.472E-02
DAV:   5    -0.162948117184E+03    0.17043E-04   -0.12848E-04   416   0.150E-02    0.503E-02
DAV:   6    -0.162948118496E+03   -0.13126E-05   -0.23120E-06   512   0.190E-03    0.504E-02
DAV:   7    -0.162948100646E+03    0.17850E-04   -0.17435E-05   432   0.657E-03    0.399E-02
DAV:   8    -0.162948108811E+03   -0.81653E-05   -0.91093E-05   400   0.142E-02    0.124E-02
DAV:   9    -0.162948111907E+03   -0.30959E-05   -0.16259E-05   480   0.538E-03    0.920E-03
DAV:  10    -0.162948111886E+03    0.20952E-07   -0.46139E-07   432   0.102E-03    0.802E-03
DAV:  11    -0.162948111540E+03    0.34601E-06   -0.53865E-06   448   0.304E-03    0.548E-03
DAV:  12    -0.162948111478E+03    0.61878E-07   -0.70282E-07   416   0.107E-03    0.539E-03
DAV:  13    -0.162948111409E+03    0.68867E-07   -0.10298E-07   432   0.433E-04    0.459E-03
DAV:  14    -0.162948111427E+03   -0.17784E-07   -0.78356E-07   416   0.140E-03    0.232E-03
DAV:  15    -0.162948111513E+03   -0.86172E-07   -0.37927E-07   464   0.750E-04    0.150E-03
DAV:  16    -0.162948111540E+03   -0.27049E-07   -0.11205E-07   416   0.525E-04    0.109E-03
DAV:  17    -0.162948111591E+03   -0.50773E-07   -0.65166E-08   416   0.370E-04    0.535E-04
DAV:  18    -0.162948111597E+03   -0.53660E-08   -0.11434E-08   480   0.150E-04
  13 F= -.16346562E+03 E0= -.16346562E+03  d E =-.129647E-10
       N       E                     dE             d eps       ncg     rms          rms(c)
DAV:   1    -0.162947653563E+03    0.45803E-03   -0.13504E-01   480   0.374E-01    0.112E-01
DAV:   2    -0.162947692170E+03   -0.38607E-04   -0.90101E-04   432   0.343E-02    0.110E-01
DAV:   3    -0.162947681038E+03    0.11132E-04   -0.96158E-06   528   0.345E-03    0.108E-01
DAV:   4    -0.162947775418E+03   -0.94380E-04   -0.22909E-04   416   0.303E-02    0.199E-02
DAV:   5    -0.162947787297E+03   -0.11880E-04   -0.62860E-05   480   0.942E-03    0.205E-02
DAV:   6    -0.162947789786E+03   -0.24891E-05   -0.16074E-06   432   0.192E-03    0.222E-02
DAV:   7    -0.162947777113E+03    0.12673E-04   -0.41662E-05   432   0.121E-02    0.602E-03
DAV:   8    -0.162947779660E+03   -0.25469E-05   -0.15104E-05   464   0.501E-03    0.605E-03
DAV:   9    -0.162947779738E+03   -0.78347E-07   -0.52026E-07   416   0.908E-04    0.638E-03
DAV:  10    -0.162947779620E+03    0.11803E-06   -0.70734E-09   496   0.210E-04    0.621E-03
DAV:  11    -0.162947779594E+03    0.25874E-07   -0.48115E-06   416   0.369E-03    0.238E-03
DAV:  12    -0.162947779598E+03   -0.38090E-08   -0.81064E-07   464   0.155E-03    0.176E-03
DAV:  13    -0.162947779651E+03   -0.53403E-07   -0.12357E-07   432   0.406E-04    0.191E-03
DAV:  14    -0.162947779657E+03   -0.51195E-08   -0.36657E-08   480   0.365E-04
  14 F= -.16346504E+03 E0= -.16346504E+03  d E =-.153650E-10
       N       E                     dE             d eps       ncg     rms          rms(c)
DAV:   1    -0.162947436751E+03    0.34290E-03   -0.27019E-01   496   0.518E-01    0.167E-01
DAV:   2    -0.162947517822E+03   -0.81071E-04   -0.17293E-03   448   0.532E-02    0.165E-01
DAV:   3    -0.162947484856E+03    0.32966E-04   -0.17783E-05   576   0.514E-03    0.160E-01
DAV:   4    -0.162947539121E+03   -0.54265E-04   -0.17457E-03   448   0.668E-02    0.594E-02
DAV:   5    -0.162947551269E+03   -0.12148E-04   -0.25997E-04   432   0.198E-02    0.678E-02
DAV:   6    -0.162947563035E+03   -0.11765E-04   -0.48172E-06   432   0.310E-03    0.710E-02
DAV:   7    -0.162947494683E+03    0.68352E-04   -0.30601E-04   432   0.287E-02    0.182E-02
DAV:   8    -0.162947507560E+03   -0.12877E-04   -0.95113E-05   480   0.115E-02    0.138E-02
DAV:   9    -0.162947506380E+03    0.11793E-05   -0.23188E-06   416   0.283E-03    0.122E-02
DAV:  10    -0.162947505101E+03    0.12787E-05   -0.56657E-06   464   0.345E-03    0.100E-02
DAV:  11    -0.162947504568E+03    0.53317E-06   -0.69611E-06   400   0.420E-03    0.502E-03
DAV:  12    -0.162947504818E+03   -0.24956E-06   -0.12745E-06   448   0.144E-03    0.456E-03
DAV:  13    -0.162947504867E+03   -0.49503E-07   -0.15373E-08   464   0.152E-04    0.451E-03
DAV:  14    -0.162947504818E+03    0.48979E-07   -0.49880E-08   432   0.355E-04    0.424E-03
DAV:  15    -0.162947504748E+03    0.70788E-07   -0.11985E-06   400   0.177E-03    0.306E-03
DAV:  16    -0.162947504784E+03   -0.36773E-07   -0.40196E-07   496   0.907E-04    0.277E-03
DAV:  17    -0.162947504811E+03   -0.26330E-07   -0.73392E-08   432   0.365E-04    0.257E-03
DAV:  18    -0.162947504833E+03   -0.22717E-07   -0.16205E-07   416   0.633E-04    0.215E-03
DAV:  19    -0.162947504882E+03   -0.48094E-07   -0.88323E-08   432   0.467E-04    0.235E-03
DAV:  20    -0.162947504897E+03   -0.15609E-07   -0.11091E-08   416   0.147E-04    0.244E-03
DAV:  21    -0.162947504916E+03   -0.19058E-07   -0.71846E-09   416   0.132E-04    0.206E-03
DAV:  22    -0.162947504996E+03   -0.80046E-07   -0.98043E-08   384   0.461E-04    0.863E-04
DAV:  23    -0.162947504999E+03   -0.26466E-08   -0.13112E-08   496   0.158E-04
  15 F= -.16346500E+03 E0= -.16346500E+03  d E =-.148304E-10
       N       E                     dE             d eps       ncg     rms          rms(c)
DAV:   1    -0.162948145391E+03   -0.64040E-03   -0.13497E-01   432   0.357E-01    0.104E-01
DAV:   2    -0.162948159441E+03   -0.14050E-04   -0.63904E-04   416   0.308E-02    0.102E-01
DAV:   3    -0.162948147229E+03    0.12213E-04   -0.72404E-06   560   0.362E-03    0.963E-02
DAV:   4    -0.162948250383E+03   -0.10315E-03   -0.42020E-04   400   0.337E-02    0.285E-02
DAV:   5    -0.162948247610E+03    0.27728E-05   -0.65899E-05   416   0.103E-02    0.323E-02
DAV:   6    -0.162948251208E+03   -0.35984E-05   -0.15113E-06   448   0.184E-03    0.340E-02
DAV:   7    -0.162948236024E+03    0.15185E-04   -0.74285E-05   416   0.144E-02    0.843E-03
DAV:   8    -0.162948239169E+03   -0.31457E-05   -0.21219E-05   448   0.553E-03    0.579E-03
DAV:   9    -0.162948239559E+03   -0.38947E-06   -0.34779E-07   448   0.724E-04    0.571E-03
DAV:  10    -0.162948239502E+03    0.56541E-07   -0.70526E-09   480   0.115E-04    0.572E-03
DAV:  11    -0.162948239201E+03    0.30115E-06   -0.11780E-06   432   0.176E-03    0.492E-03
DAV:  12    -0.162948239352E+03   -0.15134E-06   -0.28529E-06   432   0.233E-03    0.703E-03
DAV:  13    -0.162948239255E+03    0.97755E-07   -0.40445E-07   416   0.785E-04    0.716E-03
DAV:  14    -0.162948239160E+03    0.94142E-07   -0.11135E-07   416   0.529E-04    0.592E-03
DAV:  15    -0.162948239183E+03   -0.22201E-07   -0.33888E-07   464   0.916E-04    0.330E-03
DAV:  16    -0.162948239218E+03   -0.35197E-07   -0.18168E-07   416   0.623E-04    0.196E-03
DAV:  17    -0.162948239249E+03   -0.30976E-07   -0.30800E-08   448   0.229E-04    0.110E-03
DAV:  18    -0.162948239294E+03   -0.44860E-07   -0.22667E-07   416   0.644E-04    0.202E-03
DAV:  19    -0.162948239272E+03    0.21747E-07   -0.28292E-08   416   0.233E-04    0.200E-03
DAV:  20    -0.162948239260E+03    0.11846E-07   -0.51514E-09   400   0.875E-05    0.173E-03
DAV:  21    -0.162948239260E+03   -0.23647E-09   -0.98494E-09   416   0.138E-04
  16 F= -.16346560E+03 E0= -.16346560E+03  d E =-.196494E-10
       N       E                     dE             d eps       ncg     rms          rms(c)
DAV:   1    -0.162947960010E+03    0.27925E-03   -0.26335E-01   464   0.502E-01    0.134E-01
DAV:   2    -0.162947998314E+03   -0.38304E-04   -0.10243E-03   432   0.380E-02    0.132E-01
DAV:   3    -0.162947998856E+03   -0.54268E-06   -0.10115E-05   592   0.393E-03    0.122E-01
DAV:   4    -0.162948221781E+03   -0.22292E-03   -0.35664E-04   384   0.249E-02    0.212E-02
DAV:   5    -0.162948217260E+03    0.45208E-05   -0.40015E-05   416   0.785E-03    0.233E-02
DAV:   6    -0.162948216952E+03    0.30823E-06   -0.45662E-07   512   0.791E-04    0.235E-02
DAV:   7    -0.162948211518E+03    0.54337E-05   -0.82048E-06   432   0.434E-03    0.159E-02
DAV:   8    -0.162948211873E+03   -0.35475E-06   -0.22600E-05   416   0.665E-03    0.697E-03
DAV:   9    -0.162948212698E+03   -0.82546E-06   -0.34030E-06   480   0.243E-03    0.638E-03
DAV:  10    -0.162948212816E+03   -0.11802E-06   -0.34238E-08   432   0.253E-04    0.626E-03
DAV:  11    -0.162948212533E+03    0.28322E-06   -0.17058E-06   416   0.205E-03    0.290E-03
DAV:  12    -0.162948212652E+03   -0.11846E-06   -0.68309E-07   448   0.100E-03    0.223E-03
DAV:  13    -0.162948212630E+03    0.21932E-07   -0.55895E-08   416   0.311E-04    0.209E-03
DAV:  14    -0.162948212750E+03   -0.12063E-06   -0.15688E-07   416   0.609E-04    0.144E-03
DAV:  15    -0.162948212754E+03   -0.33669E-08   -0.18928E-07   512   0.580E-04    0.148E-03
DAV:  16    -0.162948212756E+03   -0.26339E-08   -0.24663E-08   448   0.195E-04
  17 F= -.16346561E+03 E0= -.16346561E+03  d E =-.217280E-10
       N       E                     dE             d eps       ncg     rms          rms(c)
DAV:   1    -0.162946828327E+03    0.13844E-02   -0.13492E-01   480   0.373E-01    0.121E-01
DAV:   2    -0.162946880430E+03   -0.52103E-04   -0.11350E-03   416   0.456E-02    0.119E-01
DAV:   3    -0.162946848607E+03    0.31824E-04   -0.10514E-05   528   0.466E-03    0.115E-01
DAV:   4    -0.162946778569E+03    0.70038E-04   -0.75591E-04   464   0.582E-02    0.487E-02
DAV:   5    -0.162946806561E+03   -0.27993E-04   -0.21384E-04   480   0.167E-02    0.538E-02
DAV:   6    -0.162946839094E+03   -0.32533E-04   -0.27576E-05   432   0.909E-03    0.632E-02
DAV:   7    -0.162946784713E+03    0.54381E-04   -0.22541E-04   384   0.237E-02    0.165E-02
DAV:   8    -0.162946791023E+03   -0.63102E-05   -0.67949E-05   448   0.108E-02    0.119E-02
DAV:   9    -0.162946791152E+03   -0.12857E-06   -0.31615E-06   432   0.270E-03    0.993E-03
DAV:  10    -0.162946791476E+03   -0.32415E-06   -0.20312E-06   448   0.292E-03    0.918E-03
DAV:  11    -0.162946791409E+03    0.66864E-07   -0.35755E-06   416   0.272E-03    0.566E-03
DAV:  12    -0.162946791472E+03   -0.62768E-07   -0.74348E-07   480   0.118E-03    0.456E-03
DAV:  13    -0.162946791416E+03    0.55958E-07   -0.32313E-07   416   0.818E-04    0.362E-03
DAV:  14    -0.162946791573E+03   -0.15724E-06   -0.12595E-06   416   0.169E-03    0.137E-03
DAV:  15    -0.162946791615E+03   -0.42079E-07   -0.20661E-07   416   0.573E-04    0.127E-03
DAV:  16    -0.162946791633E+03   -0.17308E-07   -0.20134E-08   480   0.230E-04    0.119E-03
DAV:  17    -0.162946791639E+03   -0.60309E-08   -0.14357E-07   432   0.608E-04    0.775E-04
DAV:  18    -0.162946791644E+03   -0.58471E-08   -0.26557E-08   480   0.196E-04
  18 F= -.16346399E+03 E0= -.16346399E+03  d E =-.186908E-10
       N       E                     dE             d eps       ncg     rms          rms(c)
DAV:   1    -0.162946529047E+03    0.26259E-03   -0.28440E-01   480   0.575E-01    0.224E-01
DAV:   2    -0.162946789260E+03   -0.26021E-03   -0.42494E-03   416   0.899E-02    0.222E-01
DAV:   3    -0.162946702570E+03    0.86690E-04   -0.35495E-05   496   0.768E-03    0.217E-01
DAV:   4    -0.162946010830E+03    0.69174E-03   -0.23925E-03   512   0.989E-02    0.989E-02
DAV:   5    -0.162946122362E+03   -0.11153E-03   -0.87743E-04   496   0.387E-02    0.103E-01
DAV:   6    -0.162946227891E+03   -0.10553E-03   -0.13568E-04   464   0.189E-02    0.121E-01
DAV:   7    -0.162946013699E+03    0.21419E-03   -0.63348E-04   432   0.408E-02    0.401E-02
DAV:   8    -0.162946035468E+03   -0.21769E-04   -0.24591E-04   448   0.195E-02    0.210E-02
DAV:   9    -0.162946036179E+03   -0.71147E-06   -0.11985E-05   480   0.579E-03    0.182E-02
DAV:  10    -0.162946034331E+03    0.18480E-05   -0.71186E-06   448   0.547E-03    0.148E-02
DAV:  11    -0.162946033455E+03    0.87617E-06   -0.15939E-05   416   0.582E-03    0.744E-03
DAV:  12    -0.162946033773E+03   -0.31775E-06   -0.29706E-06   416   0.240E-03    0.639E-03
DAV:  13    -0.162946033701E+03    0.71861E-07   -0.75314E-07   496   0.124E-03    0.569E-03
DAV:  14    -0.162946034207E+03   -0.50564E-06   -0.33853E-06   416   0.300E-03    0.222E-03
DAV:  15    -0.162946034307E+03   -0.10036E-06   -0.61283E-07   464   0.959E-04    0.201E-03
DAV:  16    -0.162946034280E+03    0.26773E-07   -0.45166E-08   416   0.360E-04    0.194E-03
DAV:  17    -0.162946034327E+03   -0.47070E-07   -0.43955E-07   416   0.115E-03    0.730E-04
DAV:  18    -0.162946034351E+03   -0.23590E-07   -0.12074E-07   464   0.470E-04    0.852E-04
DAV:  19    -0.162946034351E+03    0.17462E-09   -0.92749E-09   416   0.135E-04
  19 F= -.16346359E+03 E0= -.16346359E+03  d E =-.229169E-10
       N       E                     dE             d eps       ncg     rms          rms(c)
DAV:   1    -0.162947387501E+03   -0.13532E-02   -0.13974E-01   496   0.419E-01    0.157E-01
DAV:   2    -0.162947598820E+03   -0.21132E-03   -0.29040E-03   432   0.695E-02    0.155E-01
DAV:   3    -0.162947562623E+03    0.36197E-04   -0.25229E-05   496   0.585E-03    0.153E-01
DAV:   4    -0.162947309872E+03    0.25275E-03   -0.96052E-04   448   0.529E-02    0.728E-02
DAV:   5    -0.162947378868E+03   -0.68996E-04   -0.43037E-04   480   0.279E-02    0.725E-02
DAV:   6    -0.162947413125E+03   -0.34257E-04   -0.41062E-05   432   0.905E-03    0.835E-02
DAV:   7    -0.162947321993E+03    0.91132E-04   -0.31108E-04   416   0.281E-02    0.314E-02
DAV:   8    -0.162947342884E+03   -0.20891E-04   -0.97728E-05   416   0.119E-02    0.138E-02
DAV:   9    -0.162947343926E+03   -0.10423E-05   -0.57915E-06   480   0.425E-03    0.135E-02
DAV:  10    -0.162947342592E+03    0.13336E-05   -0.20983E-06   432   0.238E-03    0.114E-02
DAV:  11    -0.162947342095E+03    0.49710E-06   -0.67720E-06   416   0.449E-03    0.572E-03
DAV:  12    -0.162947342557E+03   -0.46221E-06   -0.12718E-06   480   0.152E-03    0.566E-03
DAV:  13    -0.162947342653E+03   -0.95312E-07   -0.36606E-07   432   0.933E-04    0.538E-03
DAV:  14    -0.162947342709E+03   -0.56214E-07   -0.14475E-06   416   0.194E-03    0.181E-03
DAV:  15    -0.162947342807E+03   -0.98421E-07   -0.22567E-07   416   0.611E-04    0.141E-03
DAV:  16    -0.162947342821E+03   -0.13067E-07   -0.69021E-08   496   0.369E-04    0.141E-03
DAV:  17    -0.162947342882E+03   -0.61063E-07   -0.22608E-07   432   0.769E-04    0.555E-04
DAV:  18    -0.162947342889E+03   -0.76998E-08   -0.50123E-08   448   0.292E-04
  20 F= -.16346460E+03 E0= -.16346460E+03  d E =-.162533E-10
       N       E                     dE             d eps       ncg     rms          rms(c)
DAV:   1    -0.162947214254E+03    0.12863E-03   -0.27612E-01   528   0.556E-01    0.191E-01
DAV:   2    -0.162947367229E+03   -0.15297E-03   -0.26012E-03   432   0.689E-02    0.186E-01
DAV:   3    -0.162947308135E+03    0.59094E-04   -0.24171E-05   544   0.663E-03    0.180E-01
DAV:   4    -0.162947124754E+03    0.18338E-03   -0.21160E-03   464   0.859E-02    0.723E-02
DAV:   5    -0.162947175707E+03   -0.50953E-04   -0.47056E-04   480   0.254E-02    0.810E-02
DAV:   6    -0.162947232023E+03   -0.56315E-04   -0.34967E-05   464   0.989E-03    0.898E-02
DAV:   7    -0.162947110246E+03    0.12178E-03   -0.48556E-04   432   0.376E-02    0.223E-02
DAV:   8    -0.162947129890E+03   -0.19645E-04   -0.19451E-04   480   0.175E-02    0.206E-02
DAV:   9    -0.162947127245E+03    0.26449E-05   -0.65064E-06   416   0.409E-03    0.182E-02
DAV:  10    -0.162947126091E+03    0.11545E-05   -0.86747E-07   512   0.153E-03    0.177E-02
DAV:  11    -0.162947122812E+03    0.32794E-05   -0.17617E-05   432   0.622E-03    0.879E-03
DAV:  12    -0.162947122980E+03   -0.16801E-06   -0.78188E-06   464   0.424E-03    0.455E-03
DAV:  13    -0.162947123320E+03   -0.34016E-06   -0.93859E-07   416   0.136E-03    0.415E-03
DAV:  14    -0.162947123761E+03   -0.44176E-06   -0.26266E-06   448   0.248E-03    0.382E-03
DAV:  15    -0.162947123588E+03    0.17295E-06   -0.57307E-07   416   0.136E-03    0.286E-03
DAV:  16    -0.162947123586E+03    0.22510E-08   -0.17377E-07   400   0.491E-04    0.245E-03
DAV:  17    -0.162947123618E+03   -0.31531E-07   -0.91035E-08   464   0.466E-04    0.194E-03
DAV:  18    -0.162947123635E+03   -0.17336E-07   -0.16789E-07   432   0.820E-04    0.116E-03
DAV:  19    -0.162947123645E+03   -0.99253E-08   -0.46967E-08   464   0.292E-04
  21 F= -.16346462E+03 E0= -.16346462E+03  d E =-.143165E-10
       N       E                     dE             d eps       ncg     rms          rms(c)
DAV:   1    -0.162948273194E+03   -0.11496E-02   -0.13704E-01   576   0.387E-01    0.135E-01
DAV:   2    -0.162948333571E+03   -0.60377E-04   -0.12646E-03   432   0.477E-02    0.132E-01
DAV:   3    -0.162948301756E+03    0.31815E-04   -0.10543E-05   496   0.436E-03    0.128E-01
DAV:   4    -0.162948260242E+03    0.41514E-04   -0.12355E-03   432   0.623E-02    0.525E-02
DAV:   5    -0.162948271627E+03   -0.11385E-04   -0.23150E-04   464   0.182E-02    0.593E-02
DAV:   6    -0.162948303716E+03   -0.32089E-04   -0.16169E-05   464   0.685E-03    0.653E-02
DAV:   7    -0.162948238101E+03    0.65615E-04   -0.24618E-04   416   0.265E-02    0.158E-02
DAV:   8    -0.162948247729E+03   -0.96278E-05   -0.92899E-05   480   0.117E-02    0.118E-02
DAV:   9    -0.162948247335E+03    0.39391E-06   -0.26608E-06   400   0.257E-03    0.106E-02
DAV:  10    -0.162948246411E+03    0.92427E-06   -0.42074E-07   432   0.101E-03    0.100E-02
DAV:  11    -0.162948245746E+03    0.66486E-06   -0.85261E-06   432   0.421E-03    0.387E-03
DAV:  12    -0.162948246151E+03   -0.40484E-06   -0.26172E-06   480   0.228E-03    0.272E-03
DAV:  13    -0.162948246232E+03   -0.81558E-07   -0.23055E-07   416   0.638E-04    0.272E-03
DAV:  14    -0.162948246258E+03   -0.26251E-07   -0.41794E-07   448   0.111E-03    0.204E-03
DAV:  15    -0.162948246249E+03    0.94324E-08   -0.26258E-07   416   0.881E-04    0.120E-03
DAV:  16    -0.162948246257E+03   -0.83319E-08   -0.53474E-08   464   0.286E-04
  22 F= -.16346553E+03 E0= -.16346553E+03  d E =-.162147E-10
       N       E                     dE             d eps       ncg     rms          rms(c)
DAV:   1    -0.162947678996E+03    0.56725E-03   -0.26295E-01   560   0.525E-01    0.144E-01
DAV:   2    -0.162947735578E+03   -0.56581E-04   -0.13265E-03   432   0.459E-02    0.143E-01
DAV:   3    -0.162947714253E+03    0.21324E-04   -0.13642E-05   560   0.442E-03    0.138E-01
DAV:   4    -0.162947926066E+03   -0.21181E-03   -0.90932E-04   416   0.471E-02    0.424E-02
DAV:   5    -0.162947924185E+03    0.18813E-05   -0.16136E-04   400   0.157E-02    0.490E-02
DAV:   6    -0.162947929232E+03   -0.50470E-05   -0.29716E-06   464   0.228E-03    0.514E-02
DAV:   7    -0.162947888790E+03    0.40442E-04   -0.13657E-04   432   0.192E-02    0.169E-02
DAV:   8    -0.162947894676E+03   -0.58864E-05   -0.59559E-05   464   0.922E-03    0.873E-03
DAV:   9    -0.162947895566E+03   -0.88973E-06   -0.21198E-06   448   0.191E-03    0.817E-03
DAV:  10    -0.162947895468E+03    0.98042E-07   -0.66343E-07   528   0.139E-03    0.804E-03
DAV:  11    -0.162947895213E+03    0.25438E-06   -0.49203E-06   416   0.321E-03    0.407E-03
DAV:  12    -0.162947895426E+03   -0.21210E-06   -0.14173E-06   464   0.165E-03    0.343E-03
DAV:  13    -0.162947895413E+03    0.12791E-07   -0.71874E-07   416   0.115E-03    0.285E-03
DAV:  14    -0.162947895512E+03   -0.99266E-07   -0.63012E-07   416   0.110E-03    0.211E-03
DAV:  15    -0.162947895510E+03    0.19772E-08   -0.92234E-08   496   0.356E-04
  23 F= -.16346537E+03 E0= -.16346537E+03  d E =-.139770E-10
       N       E                     dE             d eps       ncg     rms          rms(c)
DAV:   1    -0.162946725991E+03    0.11695E-02   -0.13560E-01   512   0.381E-01    0.110E-01
DAV:   2    -0.162946753433E+03   -0.27442E-04   -0.83585E-04   432   0.390E-02    0.107E-01
DAV:   3    -0.162946735386E+03    0.18046E-04   -0.82108E-06   512   0.424E-03    0.103E-01
DAV:   4    -0.162946773402E+03   -0.38016E-04   -0.49332E-04   432   0.491E-02    0.364E-02
DAV:   5    -0.162946787758E+03   -0.14356E-04   -0.14678E-04   480   0.137E-02    0.414E-02
DAV:   6    -0.162946804970E+03   -0.17213E-04   -0.10731E-05   448   0.606E-03    0.475E-02
DAV:   7    -0.162946771657E+03    0.33313E-04   -0.14409E-04   416   0.212E-02    0.129E-02
DAV:   8    -0.162946776198E+03   -0.45409E-05   -0.33411E-05   480   0.705E-03    0.920E-03
DAV:   9    -0.162946776685E+03   -0.48725E-06   -0.53698E-07   416   0.101E-03    0.892E-03
DAV:  10    -0.162946776536E+03    0.14910E-06   -0.30824E-08   416   0.293E-04    0.863E-03
DAV:  11    -0.162946776142E+03    0.39383E-06   -0.55312E-06   416   0.362E-03    0.411E-03
DAV:  12    -0.162946776505E+03   -0.36236E-06   -0.98851E-07   432   0.125E-03    0.367E-03
DAV:  13    -0.162946776532E+03   -0.27281E-07   -0.26754E-08   496   0.245E-04    0.354E-03
DAV:  14    -0.162946776626E+03   -0.93561E-07   -0.64762E-07   416   0.151E-03    0.172E-03
DAV:  15    -0.162946776649E+03   -0.23848E-07   -0.22141E-07   496   0.762E-04    0.110E-03
DAV:  16    -0.162946776653E+03   -0.41200E-08   -0.37610E-08   416   0.244E-04
  24 F= -.16346427E+03 E0= -.16346427E+03  d E =-.221496E-10
       N       E                     dE             d eps       ncg     rms          rms(c)
DAV:   1    -0.162947426261E+03   -0.64961E-03   -0.27905E-01   560   0.572E-01    0.200E-01
DAV:   2    -0.162947610272E+03   -0.18401E-03   -0.31678E-03   432   0.817E-02    0.199E-01
DAV:   3    -0.162947547932E+03    0.62340E-04   -0.29615E-05   496   0.719E-03    0.194E-01
DAV:   4    -0.162947104967E+03    0.44297E-03   -0.19406E-03   496   0.924E-02    0.866E-02
DAV:   5    -0.162947210863E+03   -0.10590E-03   -0.74892E-04   496   0.339E-02    0.907E-02
DAV:   6    -0.162947280049E+03   -0.69186E-04   -0.71938E-05   448   0.139E-02    0.104E-01
DAV:   7    -0.162947118645E+03    0.16140E-03   -0.53786E-04   416   0.392E-02    0.316E-02
DAV:   8    -0.162947143094E+03   -0.24449E-04   -0.15351E-04   448   0.147E-02    0.180E-02
DAV:   9    -0.162947144606E+03   -0.15112E-05   -0.40962E-06   416   0.379E-03    0.171E-02
DAV:  10    -0.162947141618E+03    0.29881E-05   -0.30967E-06   416   0.313E-03    0.127E-02
DAV:  11    -0.162947140951E+03    0.66671E-06   -0.11789E-05   448   0.553E-03    0.576E-03
DAV:  12    -0.162947141325E+03   -0.37412E-06   -0.20391E-06   448   0.195E-03    0.537E-03
DAV:  13    -0.162947141165E+03    0.16049E-06   -0.11826E-06   432   0.189E-03    0.365E-03
DAV:  14    -0.162947141530E+03   -0.36496E-06   -0.79477E-07   432   0.149E-03    0.165E-03
DAV:  15    -0.162947141540E+03   -0.10370E-07   -0.15475E-07   480   0.537E-04    0.139E-03
DAV:  16    -0.162947141532E+03    0.76279E-08   -0.14736E-07   416   0.618E-04    0.103E-03
DAV:  17    -0.162947141565E+03   -0.32979E-07   -0.11451E-07   432   0.550E-04    0.759E-04
DAV:  18    -0.162947141565E+03   -0.14188E-09   -0.18656E-08   432   0.179E-04
  25 F= -.16346441E+03 E0= -.16346441E+03  d E =-.196732E-10
       N       E                     dE             d eps       ncg     rms          rms(c)
DAV:   1    -0.162948294661E+03   -0.11531E-02   -0.14433E-01   480   0.427E-01    0.139E-01
DAV:   2    -0.162948387581E+03   -0.92920E-04   -0.17724E-03   432   0.531E-02    0.139E-01
DAV:   3    -0.162948359393E+03    0.28188E-04   -0.20502E-05   528   0.521E-03    0.138E-01
DAV:   4    -0.162948178764E+03    0.18063E-03   -0.46968E-04   464   0.409E-02    0.770E-02
DAV:   5    -0.162948246879E+03   -0.68115E-04   -0.49625E-04   496   0.336E-02    0.588E-02
DAV:   6    -0.162948311231E+03   -0.64352E-04   -0.12112E-04   432   0.160E-02    0.743E-02
DAV:   7    -0.162948197828E+03    0.11340E-03   -0.23924E-04   432   0.263E-02    0.416E-02
DAV:   8    -0.162948217245E+03   -0.19417E-04   -0.12121E-04   432   0.134E-02    0.164E-02
DAV:   9    -0.162948219979E+03   -0.27338E-05   -0.60406E-06   464   0.319E-03    0.145E-02
DAV:  10    -0.162948220735E+03   -0.75600E-06   -0.32064E-07   416   0.904E-04    0.144E-02
DAV:  11    -0.162948219245E+03    0.14902E-05   -0.67977E-06   432   0.458E-03    0.961E-03
DAV:  12    -0.162948219708E+03   -0.46255E-06   -0.26524E-06   480   0.217E-03    0.844E-03
DAV:  13    -0.162948219798E+03   -0.90161E-07   -0.17465E-07   416   0.633E-04    0.803E-03
DAV:  14    -0.162948220030E+03   -0.23190E-06   -0.11924E-06   432   0.174E-03    0.453E-03
DAV:  15    -0.162948220133E+03   -0.10351E-06   -0.27229E-07   480   0.674E-04    0.400E-03
DAV:  16    -0.162948220140E+03   -0.74215E-08   -0.88844E-09   416   0.130E-04
  26 F= -.16346553E+03 E0= -.16346553E+03  d E =-.135924E-10
       N       E                     dE             d eps       ncg     rms          rms(c)
DAV:   1    -0.162948288119E+03   -0.67986E-04   -0.30103E-01   448   0.488E-01    0.195E-01
DAV:   2    -0.162948323190E+03   -0.35071E-04   -0.16148E-03   448   0.355E-02    0.192E-01
DAV:   3    -0.162948229417E+03    0.93773E-04   -0.26272E-05   496   0.577E-03    0.181E-01
DAV:   4    -0.162948191996E+03    0.37421E-04   -0.20962E-03   400   0.562E-02    0.568E-02
DAV:   5    -0.162948146547E+03    0.45449E-04   -0.29103E-04   416   0.191E-02    0.611E-02
DAV:   6    -0.162948148690E+03   -0.21430E-05   -0.56601E-06   512   0.255E-03    0.616E-02
DAV:   7    -0.162948125324E+03    0.23366E-04   -0.90356E-06   464   0.404E-03    0.548E-02
DAV:   8    -0.162948100304E+03    0.25020E-04   -0.22708E-04   400   0.198E-02    0.192E-02
DAV:   9    -0.162948107015E+03   -0.67110E-05   -0.37254E-05   464   0.708E-03    0.161E-02
DAV:  10    -0.162948103721E+03    0.32944E-05   -0.13607E-05   416   0.498E-03    0.945E-03
DAV:  11    -0.162948104408E+03   -0.68678E-06   -0.51743E-06   448   0.256E-03    0.928E-03
DAV:  12    -0.162948104290E+03    0.11783E-06   -0.20937E-07   480   0.499E-04    0.953E-03
DAV:  13    -0.162948104227E+03    0.62872E-07   -0.43131E-08   464   0.284E-04    0.944E-03
DAV:  14    -0.162948104096E+03    0.13115E-06   -0.25132E-06   416   0.249E-03    0.141E-02
DAV:  15    -0.162948104243E+03   -0.14740E-06   -0.20224E-06   416   0.214E-03    0.210E-02
DAV:  16    -0.162948103515E+03    0.72879E-06   -0.39167E-06   400   0.255E-03    0.761E-03
DAV:  17    -0.162948103684E+03   -0.16938E-06   -0.75411E-07   464   0.955E-04    0.476E-03
DAV:  18    -0.162948103753E+03   -0.69357E-07   -0.14481E-08   416   0.144E-04    0.471E-03
DAV:  19    -0.162948103763E+03   -0.10221E-07   -0.81677E-11   448   0.287E-05    0.463E-03
DAV:  20    -0.162948103780E+03   -0.16918E-07   -0.61910E-07   400   0.105E-03    0.791E-03
DAV:  21    -0.162948103698E+03    0.81891E-07   -0.63875E-07   384   0.112E-03    0.417E-03
DAV:  22    -0.162948103729E+03   -0.30896E-07   -0.68585E-08   432   0.339E-04    0.468E-03
DAV:  23    -0.162948103747E+03   -0.17742E-07   -0.92394E-09   416   0.129E-04    0.500E-03
DAV:  24    -0.162948103744E+03    0.27167E-08   -0.26248E-07   384   0.704E-04    0.208E-03
DAV:  25    -0.162948103779E+03   -0.34118E-07   -0.46496E-08   448   0.273E-04    0.223E-03
DAV:  26    -0.162948103789E+03   -0.10746E-07   -0.12181E-09   416   0.590E-05    0.224E-03
DAV:  27    -0.162948103800E+03   -0.10344E-07   -0.28841E-09   384   0.957E-05    0.211E-03
DAV:  28    -0.162948103808E+03   -0.84719E-08   -0.32376E-08   416   0.216E-04
  27 F= -.16346554E+03 E0= -.16346554E+03  d E =-.166551E-10
       N       E                     dE             d eps       ncg     rms          rms(c)
DAV:   1    -0.162947333093E+03    0.77071E-03   -0.15713E-01   480   0.359E-01    0.180E-01
DAV:   2    -0.162947356106E+03   -0.23013E-04   -0.12947E-03   416   0.329E-02    0.177E-01
DAV:   3    -0.162947270005E+03    0.86101E-04   -0.19132E-05   544   0.465E-03    0.169E-01
DAV:   4    -0.162947021659E+03    0.24835E-03   -0.28668E-03   480   0.576E-02    0.651E-02
DAV:   5    -0.162946991055E+03    0.30605E-04   -0.29648E-04   448   0.184E-02    0.688E-02
DAV:   6    -0.162946981484E+03    0.95712E-05   -0.92538E-06   448   0.300E-03    0.657E-02
DAV:   7    -0.162946981762E+03   -0.27877E-06   -0.85711E-05   400   0.115E-02    0.365E-02
DAV:   8    -0.162946946952E+03    0.34810E-04   -0.12736E-04   480   0.125E-02    0.183E-02
DAV:   9    -0.162946950371E+03   -0.34183E-05   -0.15523E-05   416   0.408E-03    0.171E-02
DAV:  10    -0.162946950498E+03   -0.12716E-06   -0.10822E-06   432   0.149E-03    0.161E-02
DAV:  11    -0.162946947427E+03    0.30709E-05   -0.16647E-05   400   0.509E-03    0.770E-03
DAV:  12    -0.162946947415E+03    0.11774E-07   -0.60537E-06   496   0.276E-03    0.824E-03
DAV:  13    -0.162946947512E+03   -0.97253E-07   -0.61118E-07   416   0.838E-04    0.899E-03
DAV:  14    -0.162946947217E+03    0.29554E-06   -0.17850E-06   416   0.174E-03    0.868E-03
DAV:  15    -0.162946946937E+03    0.27983E-06   -0.27949E-06   416   0.196E-03    0.108E-02
DAV:  16    -0.162946947026E+03   -0.89331E-07   -0.38459E-07   432   0.675E-04    0.112E-02
DAV:  17    -0.162946947018E+03    0.80390E-08   -0.31001E-08   432   0.173E-04
  28 F= -.16346435E+03 E0= -.16346435E+03  d E =-.136292E-10
       N       E                     dE             d eps       ncg     rms          rms(c)
DAV:   1    -0.162947560435E+03   -0.61341E-03   -0.32044E-01   432   0.503E-01    0.255E-01
DAV:   2    -0.162947640993E+03   -0.80558E-04   -0.26744E-03   400   0.482E-02    0.251E-01
DAV:   3    -0.162947516550E+03    0.12444E-03   -0.30990E-05   528   0.590E-03    0.245E-01
DAV:   4    -0.162947023726E+03    0.49282E-03   -0.69922E-03   528   0.928E-02    0.933E-02
DAV:   5    -0.162947019360E+03    0.43659E-05   -0.80643E-04   432   0.294E-02    0.103E-01
DAV:   6    -0.162947014146E+03    0.52147E-05   -0.97656E-06   496   0.321E-03    0.104E-01
DAV:   7    -0.162947089684E+03   -0.75539E-04   -0.22852E-05   448   0.532E-03    0.104E-01
DAV:   8    -0.162946775938E+03    0.31375E-03   -0.15434E-03   496   0.445E-02    0.316E-02
DAV:   9    -0.162946800681E+03   -0.24743E-04   -0.18175E-04   448   0.145E-02    0.393E-02
DAV:  10    -0.162946798373E+03    0.23082E-05   -0.19259E-06   496   0.155E-03    0.385E-02
DAV:  11    -0.162946789363E+03    0.90093E-05   -0.33428E-05   416   0.792E-03    0.169E-02
DAV:  12    -0.162946790764E+03   -0.14009E-05   -0.14939E-05   448   0.522E-03    0.121E-02
DAV:  13    -0.162946791277E+03   -0.51314E-06   -0.28399E-06   448   0.181E-03    0.132E-02
DAV:  14    -0.162946791098E+03    0.17942E-06   -0.63726E-07   464   0.112E-03    0.120E-02
DAV:  15    -0.162946791440E+03   -0.34235E-06   -0.61524E-06   416   0.290E-03    0.410E-03
DAV:  16    -0.162946791487E+03   -0.47238E-07   -0.63680E-07   464   0.920E-04    0.377E-03
DAV:  17    -0.162946791381E+03    0.10603E-06   -0.44721E-07   432   0.819E-04    0.233E-03
DAV:  18    -0.162946791439E+03   -0.57673E-07   -0.11356E-07   416   0.427E-04    0.215E-03
DAV:  19    -0.162946791439E+03    0.42655E-09   -0.86784E-09   512   0.109E-04
  29 F= -.16346414E+03 E0= -.16346414E+03  d E =-.160616E-10
       N       E                     dE             d eps       ncg     rms          rms(c)
DAV:   1    -0.162947878251E+03   -0.10868E-02   -0.16079E-01   528   0.374E-01    0.216E-01
DAV:   2    -0.162947934603E+03   -0.56351E-04   -0.19741E-03   400   0.407E-02    0.215E-01
DAV:   3    -0.162947857081E+03    0.77522E-04   -0.20956E-05   496   0.450E-03    0.210E-01
DAV:   4    -0.162947326295E+03    0.53079E-03   -0.54820E-03   528   0.789E-02    0.817E-02
DAV:   5    -0.162947309025E+03    0.17270E-04   -0.51573E-04   448   0.238E-02    0.882E-02
DAV:   6    -0.162947309895E+03   -0.86911E-06   -0.68746E-06   448   0.274E-03    0.869E-02
DAV:   7    -0.162947232566E+03    0.77329E-04   -0.16036E-04   400   0.160E-02    0.496E-02
DAV:   8    -0.162947158846E+03    0.73720E-04   -0.39283E-04   512   0.215E-02    0.179E-02
DAV:   9    -0.162947165418E+03   -0.65722E-05   -0.41142E-05   432   0.670E-03    0.186E-02
DAV:  10    -0.162947165271E+03    0.14752E-06   -0.15628E-06   496   0.142E-03    0.179E-02
DAV:  11    -0.162947162411E+03    0.28600E-05   -0.18784E-05   416   0.576E-03    0.699E-03
DAV:  12    -0.162947164220E+03   -0.18094E-05   -0.38722E-06   432   0.231E-03    0.742E-03
DAV:  13    -0.162947163996E+03    0.22363E-06   -0.15199E-07   432   0.470E-04    0.704E-03
DAV:  14    -0.162947163630E+03    0.36637E-06   -0.66834E-06   416   0.268E-03    0.874E-03
DAV:  15    -0.162947163907E+03   -0.27707E-06   -0.12811E-06   416   0.127E-03    0.112E-02
DAV:  16    -0.162947163820E+03    0.87223E-07   -0.51980E-08   480   0.267E-04    0.112E-02
DAV:  17    -0.162947163677E+03    0.14267E-06   -0.12078E-07   432   0.451E-04    0.934E-03
DAV:  18    -0.162947163572E+03    0.10545E-06   -0.39117E-07   432   0.745E-04    0.620E-03
DAV:  19    -0.162947163619E+03   -0.47426E-07   -0.22059E-08   480   0.205E-04    0.631E-03
DAV:  20    -0.162947163623E+03   -0.37935E-08    0.14703E-10   400   0.242E-05
  30 F= -.16346465E+03 E0= -.16346465E+03  d E =-.193204E-10
       N       E                     dE             d eps       ncg     rms          rms(c)
DAV:   1    -0.162947858897E+03   -0.69528E-03   -0.31446E-01   448   0.504E-01    0.238E-01
DAV:   2    -0.162947947524E+03   -0.88626E-04   -0.24092E-03   416   0.473E-02    0.237E-01
DAV:   3    -0.162947875871E+03    0.71653E-04   -0.28674E-05   512   0.520E-03    0.233E-01
DAV:   4    -0.162947591006E+03    0.28487E-03   -0.69191E-03   512   0.911E-02    0.980E-02
DAV:   5    -0.162947514456E+03    0.76549E-04   -0.71921E-04   432   0.279E-02    0.102E-01
DAV:   6    -0.162947512832E+03    0.16241E-05   -0.11305E-05   496   0.341E-03    0.101E-01
DAV:   7    -0.162947456583E+03    0.56250E-04   -0.54246E-05   400   0.927E-03    0.802E-02
DAV:   8    -0.162947242998E+03    0.21358E-03   -0.97528E-04   544   0.358E-02    0.185E-02
DAV:   9    -0.162947259910E+03   -0.16913E-04   -0.11836E-04   400   0.114E-02    0.191E-02
DAV:  10    -0.162947258365E+03    0.15458E-05   -0.48731E-06   464   0.288E-03    0.144E-02
DAV:  11    -0.162947258118E+03    0.24631E-06   -0.94172E-06   416   0.380E-03    0.102E-02
DAV:  12    -0.162947259110E+03   -0.99158E-06   -0.20798E-06   448   0.183E-03    0.912E-03
DAV:  13    -0.162947258463E+03    0.64699E-06   -0.53175E-06   432   0.275E-03    0.396E-03
DAV:  14    -0.162947258688E+03   -0.22549E-06   -0.88119E-07   480   0.107E-03    0.447E-03
DAV:  15    -0.162947258652E+03    0.36857E-07   -0.28743E-07   432   0.794E-04    0.343E-03
DAV:  16    -0.162947258685E+03   -0.33328E-07   -0.69576E-07   416   0.113E-03    0.348E-03
DAV:  17    -0.162947258707E+03   -0.21902E-07   -0.12075E-07   448   0.410E-04    0.375E-03
DAV:  18    -0.162947258714E+03   -0.76998E-08   -0.69261E-09   432   0.125E-04
  31 F= -.16346452E+03 E0= -.16346452E+03  d E =-.222212E-10
       N       E                     dE             d eps       ncg     rms          rms(c)
DAV:   1    -0.162947040238E+03    0.21847E-03   -0.15700E-01   528   0.397E-01    0.172E-01
DAV:   2    -0.162947147123E+03   -0.10688E-03   -0.20594E-03   400   0.422E-02    0.176E-01
DAV:   3    -0.162947149457E+03   -0.23340E-05   -0.36155E-05   496   0.545E-03    0.181E-01
DAV:   4    -0.162946707930E+03    0.44153E-03   -0.91717E-04   528   0.367E-02    0.912E-02
DAV:   5    -0.162946808010E+03   -0.10008E-03   -0.91529E-04   544   0.333E-02    0.636E-02
DAV:   6    -0.162946808242E+03   -0.23158E-06   -0.64556E-05   416   0.841E-03    0.664E-02
DAV:   7    -0.162946829849E+03   -0.21608E-04   -0.49548E-06   528   0.266E-03    0.689E-02
DAV:   8    -0.162946699164E+03    0.13069E-03   -0.38447E-04   464   0.271E-02    0.339E-02
DAV:   9    -0.162946709128E+03   -0.99642E-05   -0.83630E-05   496   0.902E-03    0.261E-02
DAV:  10    -0.162946710986E+03   -0.18583E-05   -0.96918E-07   448   0.116E-03    0.261E-02
DAV:  11    -0.162946712052E+03   -0.10655E-05   -0.14420E-06   480   0.170E-03    0.273E-02
DAV:  12    -0.162946710584E+03    0.14675E-05   -0.12084E-05   448   0.453E-03    0.304E-02
DAV:  13    -0.162946710646E+03   -0.61294E-07   -0.21514E-06   512   0.154E-03    0.297E-02
DAV:  14    -0.162946711017E+03   -0.37162E-06   -0.12581E-07   432   0.413E-04    0.299E-02
DAV:  15    -0.162946712010E+03   -0.99249E-06   -0.28063E-06   416   0.207E-03    0.375E-02
DAV:  16    -0.162946711893E+03    0.11634E-06   -0.39628E-07   432   0.648E-04    0.381E-02
DAV:  17    -0.162946711806E+03    0.87463E-07   -0.12079E-08   528   0.120E-04    0.381E-02
DAV:  18    -0.162946712733E+03   -0.92726E-06   -0.35844E-07   416   0.762E-04    0.423E-02
DAV:  19    -0.162946713251E+03   -0.51751E-06   -0.16159E-07   464   0.538E-04    0.448E-02
DAV:  20    -0.162946713151E+03    0.99905E-07   -0.18631E-08   480   0.176E-04    0.448E-02
DAV:  21    -0.162946712967E+03    0.18381E-06   -0.84830E-09   416   0.135E-04    0.443E-02
DAV:  22    -0.162946710436E+03    0.25306E-05   -0.19408E-06   400   0.180E-03    0.343E-02
DAV:  23    -0.162946710719E+03   -0.28250E-06   -0.16932E-07   432   0.494E-04    0.339E-02
DAV:  24    -0.162946710831E+03   -0.11208E-06   -0.43092E-09   400   0.100E-04    0.340E-02
DAV:  25    -0.162946710627E+03    0.20428E-06   -0.45117E-08   448   0.234E-04    0.327E-02
DAV:  26    -0.162946708845E+03    0.17817E-05   -0.74431E-06   384   0.332E-03    0.128E-02
DAV:  27    -0.162946709381E+03   -0.53563E-06   -0.92472E-07   464   0.107E-03    0.852E-03
DAV:  28    -0.162946709532E+03   -0.15135E-06   -0.48707E-08   448   0.290E-04    0.746E-03
DAV:  29    -0.162946709428E+03    0.10356E-06   -0.13082E-06   416   0.156E-03    0.206E-03
DAV:  30    -0.162946709567E+03   -0.13854E-06   -0.24624E-07   400   0.634E-04    0.230E-03
DAV:  31    -0.162946709586E+03   -0.18765E-07   -0.35074E-08   496   0.228E-04    0.315E-03
DAV:  32    -0.162946709545E+03    0.40935E-07   -0.78670E-08   400   0.366E-04    0.158E-03
DAV:  33    -0.162946709524E+03    0.20937E-07   -0.27150E-08   448   0.201E-04    0.130E-03
DAV:  34    -0.162946709510E+03    0.13370E-07   -0.78236E-09   400   0.109E-04    0.126E-03
DAV:  35    -0.162946709509E+03    0.15216E-08    0.10402E-10   400   0.280E-05
  32 F= -.16346415E+03 E0= -.16346415E+03  d E =-.212708E-10
       N       E                     dE             d eps       ncg     rms          rms(c)
DAV:   1    -0.162947799606E+03   -0.10901E-02   -0.31816E-01   544   0.498E-01    0.267E-01
DAV:   2    -0.162947890803E+03   -0.91197E-04   -0.29022E-03   416   0.476E-02    0.266E-01
DAV:   3    -0.162947797898E+03    0.92905E-04   -0.34829E-05   528   0.543E-03    0.262E-01
DAV:   4    -0.162946893180E+03    0.90472E-03   -0.70711E-03   528   0.867E-02    0.968E-02
DAV:   5    -0.162947004493E+03   -0.11131E-03   -0.80438E-04   464   0.277E-02    0.111E-01
DAV:   6    -0.162947051859E+03   -0.47365E-04   -0.28926E-05   496   0.483E-03    0.111E-01
DAV:   7    -0.162946734465E+03    0.31739E-03   -0.15696E-03   448   0.431E-02    0.147E-02
DAV:   8    -0.162946752448E+03   -0.17982E-04   -0.16475E-04   448   0.131E-02    0.173E-02
DAV:   9    -0.162946752256E+03    0.19203E-06   -0.15589E-06   448   0.132E-03    0.177E-02
DAV:  10    -0.162946752973E+03   -0.71713E-06   -0.12330E-06   528   0.117E-03    0.190E-02
DAV:  11    -0.162946750954E+03    0.20184E-05   -0.12602E-06   416   0.135E-03    0.153E-02
DAV:  12    -0.162946746724E+03    0.42300E-05   -0.52509E-05   384   0.842E-03    0.451E-02
DAV:  13    -0.162946746900E+03   -0.17541E-06   -0.25726E-05   384   0.614E-03    0.837E-03
DAV:  14    -0.162946748344E+03   -0.14437E-05   -0.43586E-06   464   0.253E-03    0.543E-03
DAV:  15    -0.162946747716E+03    0.62756E-06   -0.27211E-06   416   0.200E-03    0.102E-02
DAV:  16    -0.162946748576E+03   -0.85990E-06   -0.49255E-07   416   0.101E-03    0.481E-03
DAV:  17    -0.162946749086E+03   -0.50977E-06   -0.10321E-06   448   0.130E-03    0.233E-03
DAV:  18    -0.162946749079E+03    0.67348E-08   -0.12559E-07   448   0.443E-04    0.213E-03
DAV:  19    -0.162946749067E+03    0.12157E-07   -0.64041E-09   448   0.915E-05    0.226E-03
DAV:  20    -0.162946749084E+03   -0.17505E-07   -0.19392E-07   416   0.498E-04    0.167E-03
DAV:  21    -0.162946749122E+03   -0.38182E-07   -0.74901E-08   432   0.386E-04    0.127E-03
DAV:  22    -0.162946749125E+03   -0.23847E-08   -0.79202E-09   464   0.120E-04
  33 F= -.16346407E+03 E0= -.16346407E+03  d E =-.196525E-10
       N       E                     dE             d eps       ncg     rms          rms(c)
DAV:   1    -0.162948666511E+03   -0.19174E-02   -0.16224E-01   576   0.360E-01    0.216E-01
DAV:   2    -0.162948672482E+03   -0.59710E-05   -0.14733E-03   432   0.359E-02    0.211E-01
DAV:   3    -0.162948542330E+03    0.13015E-03   -0.21549E-05   528   0.505E-03    0.201E-01
DAV:   4    -0.162948004929E+03    0.53740E-03   -0.47414E-03   496   0.700E-02    0.773E-02
DAV:   5    -0.162948012366E+03   -0.74367E-05   -0.43184E-04   432   0.210E-02    0.857E-02
DAV:   6    -0.162948015067E+03   -0.27009E-05   -0.46384E-06   432   0.219E-03    0.855E-02
DAV:   7    -0.162948020945E+03   -0.58777E-05   -0.54200E-05   416   0.843E-03    0.603E-02
DAV:   8    -0.162947888045E+03    0.13290E-03   -0.68397E-04   528   0.276E-02    0.327E-02
DAV:   9    -0.162947892036E+03   -0.39912E-05   -0.63121E-05   432   0.842E-03    0.370E-02
DAV:  10    -0.162947888592E+03    0.34439E-05   -0.12895E-06   464   0.145E-03    0.336E-02
DAV:  11    -0.162947884595E+03    0.39971E-05   -0.18474E-05   432   0.570E-03    0.179E-02
DAV:  12    -0.162947886062E+03   -0.14669E-05   -0.29917E-06   464   0.209E-03    0.151E-02
DAV:  13    -0.162947885803E+03    0.25886E-06   -0.23766E-07   432   0.543E-04    0.121E-02
DAV:  14    -0.162947885915E+03   -0.11212E-06   -0.12237E-05   416   0.335E-03    0.832E-03
DAV:  15    -0.162947885666E+03    0.24981E-06   -0.81104E-07   464   0.960E-04    0.759E-03
DAV:  16    -0.162947885597E+03    0.68371E-07   -0.68417E-08   416   0.313E-04    0.678E-03
DAV:  17    -0.162947885663E+03   -0.65442E-07   -0.33036E-07   400   0.881E-04    0.509E-03
DAV:  18    -0.162947885664E+03   -0.13706E-08   -0.14603E-07   416   0.467E-04    0.389E-03
DAV:  19    -0.162947885680E+03   -0.16167E-07   -0.17276E-08   496   0.161E-04    0.375E-03
DAV:  20    -0.162947885744E+03   -0.63471E-07   -0.13278E-07   416   0.430E-04    0.893E-04
DAV:  21    -0.162947885758E+03   -0.14852E-07   -0.32814E-08   448   0.193E-04    0.496E-04
DAV:  22    -0.162947885758E+03    0.14370E-09   -0.80172E-10   400   0.483E-05
  34 F= -.16346513E+03 E0= -.16346513E+03  d E =-.168719E-10
       N       E                     dE             d eps       ncg     rms          rms(c)
DAV:   1    -0.162948004845E+03   -0.11909E-03   -0.31278E-01   512   0.492E-01    0.216E-01
DAV:   2    -0.162948045197E+03   -0.40352E-04   -0.18233E-03   416   0.374E-02    0.213E-01
DAV:   3    -0.162947940944E+03    0.10425E-03   -0.25369E-05   512   0.520E-03    0.205E-01
DAV:   4    -0.162947735070E+03    0.20587E-03   -0.43512E-03   432   0.691E-02    0.765E-02
DAV:   5    -0.162947719816E+03    0.15254E-04   -0.43221E-04   416   0.210E-02    0.837E-02
DAV:   6    -0.162947718617E+03    0.11984E-05   -0.61694E-06   480   0.235E-03    0.844E-02
DAV:   7    -0.162947730454E+03   -0.11836E-04   -0.10640E-06   576   0.105E-03    0.858E-02
DAV:   8    -0.162947560670E+03    0.16978E-03   -0.68981E-04   432   0.297E-02    0.195E-02
DAV:   9    -0.162947569489E+03   -0.88195E-05   -0.10890E-04   480   0.104E-02    0.149E-02
DAV:  10    -0.162947570057E+03   -0.56786E-06   -0.22009E-06   416   0.140E-03    0.148E-02
DAV:  11    -0.162947570001E+03    0.56259E-07   -0.10410E-07   416   0.325E-04    0.151E-02
DAV:  12    -0.162947570007E+03   -0.65820E-08   -0.13041E-05   416   0.482E-03    0.942E-03
DAV:  13    -0.162947569120E+03    0.88710E-06   -0.73802E-06   512   0.358E-03    0.576E-03
DAV:  14    -0.162947569242E+03   -0.12144E-06   -0.11095E-06   416   0.108E-03    0.544E-03
DAV:  15    -0.162947569329E+03   -0.87497E-07   -0.50565E-08   432   0.258E-04    0.514E-03
DAV:  16    -0.162947569688E+03   -0.35903E-06   -0.21932E-06   416   0.206E-03    0.298E-03
DAV:  17    -0.162947569779E+03   -0.90574E-07   -0.30423E-07   448   0.669E-04    0.320E-03
DAV:  18    -0.162947569755E+03    0.23805E-07   -0.39755E-09   400   0.883E-05    0.312E-03
DAV:  19    -0.162947569829E+03   -0.73810E-07   -0.29656E-07   416   0.723E-04    0.148E-03
DAV:  20    -0.162947569867E+03   -0.38584E-07   -0.31520E-08   464   0.238E-04    0.136E-03
DAV:  21    -0.162947569872E+03   -0.47166E-08   -0.23828E-10   400   0.381E-05
  35 F= -.16346508E+03 E0= -.16346508E+03  d E =-.136228E-10
       N       E                     dE             d eps       ncg     rms          rms(c)
DAV:   1    -0.162948014853E+03   -0.44499E-03   -0.15439E-01   448   0.339E-01    0.119E-01
DAV:   2    -0.162948020842E+03   -0.59894E-05   -0.62826E-04   400   0.202E-02    0.117E-01
DAV:   3    -0.162947996696E+03    0.24147E-04   -0.10962E-05   528   0.351E-03    0.108E-01
DAV:   4    -0.162948044591E+03   -0.47896E-04   -0.48581E-04   400   0.234E-02    0.192E-02
DAV:   5    -0.162948042063E+03    0.25285E-05   -0.48707E-05   432   0.663E-03    0.213E-02
DAV:   6    -0.162948042180E+03   -0.11722E-06   -0.84636E-07   464   0.891E-04    0.220E-02
DAV:   7    -0.162948028933E+03    0.13248E-04   -0.15509E-05   432   0.532E-03    0.133E-02
DAV:   8    -0.162948024850E+03    0.40829E-05   -0.35958E-05   416   0.748E-03    0.637E-03
DAV:   9    -0.162948025289E+03   -0.43911E-06   -0.51957E-06   448   0.252E-03    0.663E-03
DAV:  10    -0.162948024465E+03    0.82333E-06   -0.14950E-06   400   0.152E-03    0.514E-03
DAV:  11    -0.162948024422E+03    0.43792E-07   -0.79825E-07   480   0.104E-03    0.486E-03
DAV:  12    -0.162948024351E+03    0.70626E-07   -0.11023E-07   464   0.381E-04    0.456E-03
DAV:  13    -0.162948024240E+03    0.11070E-06   -0.40239E-07   416   0.727E-04    0.304E-03
DAV:  14    -0.162948024262E+03   -0.21214E-07   -0.24346E-07   432   0.576E-04    0.203E-03
DAV:  15    -0.162948024293E+03   -0.31626E-07   -0.31974E-08   448   0.236E-04    0.173E-03
DAV:  16    -0.162948024344E+03   -0.51289E-07   -0.11937E-07   416   0.396E-04    0.456E-04
DAV:  17    -0.162948024354E+03   -0.92732E-08   -0.14281E-08   448   0.161E-04
  36 F= -.16346543E+03 E0= -.16346543E+03  d E =-.165944E-10
       N       E                     dE             d eps       ncg     rms          rms(c)
DAV:   1    -0.162948303247E+03   -0.27890E-03   -0.31116E-01   512   0.483E-01    0.200E-01
DAV:   2    -0.162948334137E+03   -0.30890E-04   -0.15229E-03   432   0.342E-02    0.195E-01
DAV:   3    -0.162948233241E+03    0.10090E-03   -0.32061E-05   528   0.573E-03    0.183E-01
DAV:   4    -0.162948129481E+03    0.10376E-03   -0.27869E-03   432   0.518E-02    0.629E-02
DAV:   5    -0.162948090418E+03    0.39064E-04   -0.24751E-04   416   0.154E-02    0.663E-02
DAV:   6    -0.162948091980E+03   -0.15622E-05   -0.47180E-06   496   0.205E-03    0.668E-02
DAV:   7    -0.162948057812E+03    0.34168E-04   -0.14546E-05   560   0.428E-03    0.595E-02
DAV:   8    -0.162948021826E+03    0.35986E-04   -0.26942E-04   416   0.198E-02    0.134E-02
DAV:   9    -0.162948027416E+03   -0.55899E-05   -0.37386E-05   464   0.650E-03    0.111E-02
DAV:  10    -0.162948027204E+03    0.21179E-06   -0.73465E-07   480   0.956E-04    0.100E-02
DAV:  11    -0.162948025820E+03    0.13846E-05   -0.48215E-06   416   0.374E-03    0.552E-03
DAV:  12    -0.162948026045E+03   -0.22539E-06   -0.29850E-06   496   0.192E-03    0.506E-03
DAV:  13    -0.162948026345E+03   -0.30034E-06   -0.78673E-07   448   0.119E-03    0.519E-03
DAV:  14    -0.162948026166E+03    0.17935E-06   -0.26493E-06   416   0.218E-03    0.237E-03
DAV:  15    -0.162948026221E+03   -0.55134E-07   -0.42936E-07   400   0.741E-04    0.187E-03
DAV:  16    -0.162948026248E+03   -0.26914E-07   -0.66279E-08   496   0.358E-04    0.168E-03
DAV:  17    -0.162948026355E+03   -0.10646E-06   -0.21956E-07   400   0.549E-04    0.995E-04
DAV:  18    -0.162948026346E+03    0.84374E-08   -0.25073E-08   496   0.219E-04
  37 F= -.16346538E+03 E0= -.16346538E+03  d E =-.135570E-10
       N       E                     dE             d eps       ncg     rms          rms(c)
DAV:   1    -0.162948281163E+03   -0.25481E-03   -0.15653E-01   400   0.366E-01    0.139E-01
DAV:   2    -0.162948305927E+03   -0.24764E-04   -0.10226E-03   416   0.280E-02    0.138E-01
DAV:   3    -0.162948276233E+03    0.29693E-04   -0.15126E-05   496   0.374E-03    0.137E-01
DAV:   4    -0.162948207787E+03    0.68447E-04   -0.17405E-03   400   0.421E-02    0.485E-02
DAV:   5    -0.162948218372E+03   -0.10585E-04   -0.17496E-04   432   0.131E-02    0.537E-02
DAV:   6    -0.162948212428E+03    0.59441E-05   -0.21226E-06   512   0.164E-03    0.517E-02
DAV:   7    -0.162948153844E+03    0.58583E-04   -0.28052E-04   416   0.193E-02    0.963E-03
DAV:   8    -0.162948157784E+03   -0.39401E-05   -0.33127E-05   480   0.586E-03    0.762E-03
DAV:   9    -0.162948158100E+03   -0.31567E-06   -0.37234E-07   432   0.635E-04    0.737E-03
DAV:  10    -0.162948157047E+03    0.10532E-05   -0.20686E-06   432   0.183E-03    0.427E-03
DAV:  11    -0.162948157031E+03    0.15908E-07   -0.18928E-06   464   0.188E-03    0.294E-03
DAV:  12    -0.162948157076E+03   -0.45339E-07   -0.34812E-07   416   0.672E-04    0.328E-03
DAV:  13    -0.162948157010E+03    0.66689E-07   -0.39730E-07   464   0.775E-04    0.202E-03
DAV:  14    -0.162948157071E+03   -0.60974E-07   -0.32835E-07   416   0.683E-04    0.117E-03
DAV:  15    -0.162948157073E+03   -0.25129E-08   -0.41162E-08   480   0.198E-04
  38 F= -.16346562E+03 E0= -.16346562E+03  d E =-.208726E-10
       N       E                     dE             d eps       ncg     rms          rms(c)
DAV:   1    -0.162948499197E+03   -0.34213E-03   -0.30809E-01   416   0.491E-01    0.178E-01
DAV:   2    -0.162948542294E+03   -0.43097E-04   -0.14430E-03   432   0.328E-02    0.175E-01
DAV:   3    -0.162948478498E+03    0.63796E-04   -0.20990E-05   496   0.461E-03    0.167E-01
DAV:   4    -0.162948527515E+03   -0.49017E-04   -0.20556E-03   432   0.454E-02    0.508E-02
DAV:   5    -0.162948501539E+03    0.25976E-04   -0.19083E-04   416   0.132E-02    0.540E-02
DAV:   6    -0.162948502610E+03   -0.10711E-05   -0.33137E-06   464   0.168E-03    0.550E-02
DAV:   7    -0.162948426796E+03    0.75815E-04   -0.11698E-04   480   0.121E-02    0.300E-02
DAV:   8    -0.162948423355E+03    0.34406E-05   -0.11205E-04   432   0.114E-02    0.930E-03
DAV:   9    -0.162948424678E+03   -0.13234E-05   -0.90611E-06   464   0.321E-03    0.897E-03
DAV:  10    -0.162948422951E+03    0.17275E-05   -0.61204E-06   448   0.276E-03    0.642E-03
DAV:  11    -0.162948422914E+03    0.37330E-07   -0.23665E-06   416   0.193E-03    0.541E-03
DAV:  12    -0.162948422946E+03   -0.31979E-07   -0.35900E-07   432   0.617E-04    0.570E-03
DAV:  13    -0.162948422802E+03    0.14396E-06   -0.11050E-07   416   0.393E-04    0.496E-03
DAV:  14    -0.162948422941E+03   -0.13938E-06   -0.12295E-06   416   0.128E-03    0.175E-03
DAV:  15    -0.162948423011E+03   -0.70287E-07   -0.99870E-08   480   0.380E-04    0.172E-03
DAV:  16    -0.162948423019E+03   -0.78935E-08   -0.12681E-09   480   0.497E-05
  39 F= -.16346571E+03 E0= -.16346571E+03  d E =-.194152E-10
       N       E                     dE             d eps       ncg     rms          rms(c)
DAV:   1    -0.162947469926E+03    0.95309E-03   -0.15908E-01   480   0.359E-01    0.175E-01
DAV:   2    -0.162947523714E+03   -0.53789E-04   -0.15388E-03   432   0.347E-02    0.175E-01
DAV:   3    -0.162947484559E+03    0.39155E-04   -0.20818E-05   512   0.406E-03    0.174E-01
DAV:   4    -0.162947082471E+03    0.40209E-03   -0.15601E-03   464   0.407E-02    0.748E-02
DAV:   5    -0.162947202506E+03   -0.12004E-03   -0.57906E-04   528   0.234E-02    0.716E-02
DAV:   6    -0.162947214259E+03   -0.11753E-04   -0.21463E-05   416   0.462E-03    0.707E-02
DAV:   7    -0.162947110314E+03    0.10395E-03   -0.23897E-04   416   0.171E-02    0.275E-02
DAV:   8    -0.162947096059E+03    0.14255E-04   -0.13341E-04   480   0.115E-02    0.934E-03
DAV:   9    -0.162947097658E+03   -0.15984E-05   -0.67783E-06   432   0.255E-03    0.891E-03
DAV:  10    -0.162947097541E+03    0.11696E-06   -0.17898E-07   464   0.433E-04    0.858E-03
DAV:  11    -0.162947097002E+03    0.53914E-06   -0.84292E-06   416   0.353E-03    0.504E-03
DAV:  12    -0.162947097178E+03   -0.17620E-06   -0.22760E-06   432   0.198E-03    0.360E-03
DAV:  13    -0.162947097210E+03   -0.32089E-07   -0.33407E-07   432   0.641E-04    0.402E-03
DAV:  14    -0.162947097328E+03   -0.11785E-06   -0.60511E-07   416   0.945E-04    0.271E-03
DAV:  15    -0.162947097366E+03   -0.38189E-07   -0.27074E-07   432   0.708E-04    0.192E-03
DAV:  16    -0.162947097378E+03   -0.11728E-07   -0.27793E-08   416   0.214E-04    0.187E-03
DAV:  17    -0.162947097396E+03   -0.17921E-07   -0.74814E-09   432   0.110E-04    0.183E-03
DAV:  18    -0.162947097416E+03   -0.20368E-07   -0.75545E-08   416   0.390E-04    0.102E-03
DAV:  19    -0.162947097432E+03   -0.16109E-07   -0.35687E-08   464   0.226E-04    0.742E-04
DAV:  20    -0.162947097434E+03   -0.15671E-08   -0.13367E-09   400   0.466E-05
  40 F= -.16346427E+03 E0= -.16346427E+03  d E =-.214570E-10
       N       E                     dE             d eps       ncg     rms          rms(c)
DAV:   1    -0.162947631418E+03   -0.53399E-03   -0.31303E-01   496   0.511E-01    0.251E-01
DAV:   2    -0.162947734275E+03   -0.10286E-03   -0.27699E-03   432   0.459E-02    0.251E-01
DAV:   3    -0.162947670671E+03    0.63604E-04   -0.39743E-05   496   0.511E-03    0.250E-01
DAV:   4    -0.162946833893E+03    0.83678E-03   -0.17530E-03   544   0.422E-02    0.138E-01
[...]
DAV:   5    -0.162942469155E+03   -0.17391E-03   -0.13295E-03   480   0.383E-02    0.974E-02
DAV:   6    -0.162942502080E+03   -0.32924E-04   -0.22406E-05   480   0.538E-03    0.104E-01
DAV:   7    -0.162942280913E+03    0.22117E-03   -0.63192E-04   416   0.402E-02    0.434E-02
DAV:   8    -0.162942279946E+03    0.96725E-06   -0.23834E-04   448   0.208E-02    0.311E-02
DAV:   9    -0.162942283812E+03   -0.38662E-05   -0.14389E-05   432   0.444E-03    0.324E-02
DAV:  10    -0.162942291056E+03   -0.72442E-05   -0.38056E-07   432   0.934E-04    0.321E-02
DAV:  11    -0.162942300102E+03   -0.90464E-05   -0.10120E-04   384   0.152E-02    0.254E-02
DAV:  12    -0.162942305866E+03   -0.57636E-05   -0.17267E-05   464   0.490E-03    0.287E-02
DAV:  13    -0.162942305450E+03    0.41629E-06   -0.28721E-07   448   0.671E-04    0.290E-02
DAV:  14    -0.162942301078E+03    0.43721E-05   -0.63143E-06   432   0.449E-03    0.240E-02
DAV:  15    -0.162942297646E+03    0.34313E-05   -0.70508E-06   416   0.389E-03    0.203E-02
DAV:  16    -0.162942297793E+03   -0.14654E-06   -0.96082E-07   448   0.122E-03    0.193E-02
DAV:  17    -0.162942297653E+03    0.14011E-06   -0.16894E-07   432   0.584E-04    0.189E-02
DAV:  18    -0.162942297165E+03    0.48815E-06   -0.64764E-07   416   0.135E-03    0.161E-02
DAV:  19    -0.162942297193E+03   -0.27952E-07   -0.84053E-08   416   0.409E-04    0.160E-02
DAV:  20    -0.162942297217E+03   -0.24691E-07   -0.45526E-10   464   0.428E-05    0.160E-02
DAV:  21    -0.162942297160E+03    0.57808E-07   -0.90496E-09   512   0.161E-04    0.158E-02
DAV:  22    -0.162942297178E+03   -0.18815E-07   -0.15326E-06   416   0.177E-03    0.106E-02
DAV:  23    -0.162942297305E+03   -0.12669E-06   -0.46233E-07   448   0.876E-04    0.827E-03
DAV:  24    -0.162942297419E+03   -0.11394E-06   -0.61935E-08   416   0.334E-04    0.731E-03
DAV:  25    -0.162942298444E+03   -0.10248E-05   -0.22469E-06   400   0.193E-03    0.286E-03
DAV:  26    -0.162942298792E+03   -0.34832E-06   -0.76079E-07   448   0.107E-03    0.509E-03
DAV:  27    -0.162942298853E+03   -0.60562E-07   -0.29656E-08   416   0.218E-04    0.543E-03
DAV:  28    -0.162942298854E+03   -0.12105E-08   -0.15358E-09   464   0.558E-05
 180 F= -.16345942E+03 E0= -.16345942E+03  d E =-.187828E-10
       N       E                     dE             d eps       ncg     rms          rms(c)
DAV:   1    -0.162945056547E+03   -0.27577E-02   -0.51142E+00   432   0.248E+00    0.480E-01
DAV:   2    -0.162945412527E+03   -0.35598E-03   -0.22917E-02   416   0.173E-01    0.470E-01
DAV:   3    -0.162944481060E+03    0.93147E-03   -0.17102E-04   528   0.178E-02    0.448E-01
DAV:   4    -0.162941859576E+03    0.26215E-02   -0.22472E-02   448   0.206E-01    0.135E-01
DAV:   5    -0.162941953408E+03   -0.93832E-04   -0.23308E-03   464   0.504E-02    0.145E-01
DAV:   6    -0.162942451466E+03   -0.49806E-03   -0.49801E-04   496   0.331E-02    0.175E-01
DAV:   7    -0.162942041536E+03    0.40993E-03   -0.32133E-03   400   0.908E-02    0.489E-02
DAV:   8    -0.162942103382E+03   -0.61847E-04   -0.37924E-04   464   0.224E-02    0.530E-02
DAV:   9    -0.162942112644E+03   -0.92616E-05   -0.97328E-06   432   0.387E-03    0.563E-02
DAV:  10    -0.162942138541E+03   -0.25897E-04   -0.24800E-04   400   0.215E-02    0.349E-02
DAV:  11    -0.162942138908E+03   -0.36748E-06   -0.43888E-05   480   0.877E-03    0.298E-02
DAV:  12    -0.162942140840E+03   -0.19319E-05   -0.10877E-05   480   0.419E-03    0.296E-02
DAV:  13    -0.162942133363E+03    0.74769E-05   -0.76513E-05   384   0.139E-02    0.974E-03
DAV:  14    -0.162942136760E+03   -0.33972E-05   -0.16933E-05   432   0.507E-03    0.814E-03
DAV:  15    -0.162942137149E+03   -0.38888E-06   -0.51769E-07   464   0.929E-04    0.803E-03
DAV:  16    -0.162942136858E+03    0.29077E-06   -0.28317E-07   432   0.874E-04    0.665E-03
DAV:  17    -0.162942136784E+03    0.74373E-07   -0.44436E-06   416   0.350E-03    0.250E-03
DAV:  18    -0.162942136966E+03   -0.18188E-06   -0.73831E-07   416   0.119E-03    0.220E-03
DAV:  19    -0.162942137001E+03   -0.35186E-07   -0.14571E-07   480   0.504E-04    0.182E-03
DAV:  20    -0.162942137232E+03   -0.23121E-06   -0.25360E-07   416   0.888E-04    0.145E-03
DAV:  21    -0.162942137265E+03   -0.33280E-07   -0.59392E-08   448   0.384E-04    0.110E-03
DAV:  22    -0.162942137268E+03   -0.29986E-08   -0.21024E-08   480   0.185E-04
 181 F= -.16345977E+03 E0= -.16345977E+03  d E =-.218561E-10
       N       E                     dE             d eps       ncg     rms          rms(c)
DAV:   1    -0.162944662726E+03   -0.25255E-02   -0.25681E+00   432   0.184E+00    0.295E-01
DAV:   2    -0.162945867434E+03   -0.12047E-02   -0.22327E-02   416   0.176E-01    0.305E-01
DAV:   3    -0.162945639288E+03    0.22815E-03   -0.21398E-04   496   0.170E-02    0.311E-01
DAV:   4    -0.162944633566E+03    0.10057E-02   -0.13137E-03   432   0.554E-02    0.209E-01
DAV:   5    -0.162944576608E+03    0.56958E-04   -0.49537E-03   416   0.104E-01    0.810E-02
DAV:   6    -0.162944661319E+03   -0.84711E-04   -0.77844E-04   496   0.322E-02    0.958E-02
DAV:   7    -0.162944622960E+03    0.38359E-04   -0.79204E-05   432   0.152E-02    0.710E-02
DAV:   8    -0.162944693538E+03   -0.70578E-04   -0.29093E-04   416   0.253E-02    0.357E-02
DAV:   9    -0.162944702218E+03   -0.86806E-05   -0.35239E-05   480   0.747E-03    0.353E-02
DAV:  10    -0.162944703456E+03   -0.12377E-05   -0.45148E-07   432   0.822E-04    0.355E-02
DAV:  11    -0.162944696805E+03    0.66505E-05   -0.11887E-05   416   0.552E-03    0.313E-02
DAV:  12    -0.162944699549E+03   -0.27434E-05   -0.49926E-05   416   0.109E-02    0.229E-02
DAV:  13    -0.162944700374E+03   -0.82479E-06   -0.85645E-06   464   0.369E-03    0.224E-02
DAV:  14    -0.162944700373E+03    0.10687E-08   -0.10844E-07   480   0.422E-04    0.224E-02
DAV:  15    -0.162944701345E+03   -0.97235E-06   -0.48767E-06   432   0.339E-03    0.227E-02
DAV:  16    -0.162944698355E+03    0.29894E-05   -0.11649E-05   416   0.538E-03    0.175E-02
DAV:  17    -0.162944698935E+03   -0.57978E-06   -0.20720E-06   432   0.175E-03    0.166E-02
DAV:  18    -0.162944699292E+03   -0.35674E-06   -0.19150E-07   464   0.670E-04    0.168E-02
DAV:  19    -0.162944698389E+03    0.90316E-06   -0.21129E-06   416   0.258E-03    0.130E-02
DAV:  20    -0.162944698462E+03   -0.73516E-07   -0.53003E-07   448   0.943E-04    0.121E-02
DAV:  21    -0.162944698512E+03   -0.49420E-07   -0.14012E-08   464   0.141E-04    0.120E-02
DAV:  22    -0.162944698459E+03    0.52853E-07   -0.62797E-09   448   0.120E-04    0.119E-02
DAV:  23    -0.162944698179E+03    0.27952E-06   -0.20923E-06   416   0.242E-03    0.654E-03
DAV:  24    -0.162944698251E+03   -0.71781E-07   -0.61956E-07   432   0.111E-03    0.531E-03
DAV:  25    -0.162944698345E+03   -0.93976E-07   -0.36404E-08   496   0.246E-04    0.521E-03
DAV:  26    -0.162944698479E+03   -0.13375E-06   -0.11538E-07   416   0.522E-04    0.476E-03
DAV:  27    -0.162944698734E+03   -0.25557E-06   -0.28334E-07   416   0.892E-04    0.541E-03
DAV:  28    -0.162944698719E+03    0.15770E-07   -0.34539E-08   432   0.253E-04    0.545E-03
DAV:  29    -0.162944698784E+03   -0.65691E-07   -0.71242E-09   400   0.131E-04    0.537E-03
DAV:  30    -0.162944698994E+03   -0.20977E-06   -0.13026E-07   416   0.620E-04    0.420E-03
DAV:  31    -0.162944699025E+03   -0.30730E-07   -0.25625E-08   448   0.198E-04    0.400E-03
DAV:  32    -0.162944699038E+03   -0.13225E-07    0.13799E-10   432   0.288E-05    0.402E-03
DAV:  33    -0.162944699085E+03   -0.46739E-07   -0.96688E-08   416   0.543E-04    0.293E-03
DAV:  34    -0.162944699143E+03   -0.58088E-07   -0.28775E-08   432   0.226E-04    0.253E-03
DAV:  35    -0.162944699157E+03   -0.14384E-07   -0.35829E-10   448   0.391E-05    0.251E-03
DAV:  36    -0.162944699166E+03   -0.91322E-08    0.60965E-11   368   0.394E-05
 182 F= -.16346195E+03 E0= -.16346195E+03  d E =-.142519E-10
       N       E                     dE             d eps       ncg     rms          rms(c)
DAV:   1    -0.162945935615E+03   -0.12365E-02   -0.52114E+00   400   0.207E+00    0.390E-01
DAV:   2    -0.162946709627E+03   -0.77401E-03   -0.21652E-02   416   0.143E-01    0.392E-01
DAV:   3    -0.162946315117E+03    0.39451E-03   -0.20918E-04   496   0.129E-02    0.394E-01
DAV:   4    -0.162946457813E+03   -0.14270E-03   -0.26399E-05   480   0.638E-03    0.403E-01
DAV:   5    -0.162946909086E+03   -0.45127E-03   -0.46241E-02   464   0.299E-01    0.349E-01
DAV:   6    -0.162946932589E+03   -0.23503E-04   -0.54763E-03   464   0.795E-02    0.308E-01
DAV:   7    -0.162944603021E+03    0.23296E-02   -0.42944E-03   464   0.934E-02    0.143E-01
DAV:   8    -0.162944591530E+03    0.11490E-04   -0.82974E-04   480   0.312E-02    0.110E-01
DAV:   9    -0.162944570672E+03    0.20858E-04   -0.40245E-05   496   0.865E-03    0.103E-01
DAV:  10    -0.162944288599E+03    0.28207E-03   -0.11114E-03   416   0.568E-02    0.335E-02
DAV:  11    -0.162944325533E+03   -0.36934E-04   -0.34785E-04   496   0.219E-02    0.334E-02
DAV:  12    -0.162944328930E+03   -0.33973E-05   -0.17625E-05   432   0.430E-03    0.354E-02
DAV:  13    -0.162944328680E+03    0.24982E-06   -0.28355E-06   432   0.232E-03    0.357E-02
DAV:  14    -0.162944317049E+03    0.11631E-04   -0.10977E-04   416   0.183E-02    0.194E-02
DAV:  15    -0.162944329936E+03   -0.12888E-04   -0.56820E-05   400   0.105E-02    0.331E-02
DAV:  16    -0.162944330786E+03   -0.84931E-06   -0.71571E-06   496   0.253E-03    0.346E-02
DAV:  17    -0.162944329162E+03    0.16241E-05   -0.36642E-07   416   0.902E-04    0.332E-02
DAV:  18    -0.162944338996E+03   -0.98347E-05   -0.95140E-06   400   0.467E-03    0.446E-02
DAV:  19    -0.162944345105E+03   -0.61090E-05   -0.50295E-06   448   0.286E-03    0.515E-02
DAV:  20    -0.162944339049E+03    0.60568E-05   -0.30593E-06   416   0.312E-03    0.485E-02
DAV:  21    -0.162944312805E+03    0.26243E-04   -0.36180E-04   400   0.276E-02    0.270E-02
DAV:  22    -0.162944327390E+03   -0.14585E-04   -0.66868E-05   480   0.888E-03    0.397E-02
DAV:  23    -0.162944330667E+03   -0.32764E-05   -0.34524E-06   432   0.245E-03    0.444E-02
DAV:  24    -0.162944322101E+03    0.85651E-05   -0.20996E-05   400   0.693E-03    0.276E-02
DAV:  25    -0.162944320775E+03    0.13264E-05   -0.25685E-05   416   0.690E-03    0.123E-02
DAV:  26    -0.162944321159E+03   -0.38369E-06   -0.34302E-06   448   0.217E-03    0.120E-02
DAV:  27    -0.162944321299E+03   -0.13989E-06   -0.48698E-07   432   0.123E-03    0.101E-02
DAV:  28    -0.162944321188E+03    0.11077E-06   -0.20163E-06   416   0.197E-03    0.709E-03
DAV:  29    -0.162944321203E+03   -0.14888E-07   -0.22086E-06   416   0.193E-03    0.634E-03
DAV:  30    -0.162944321223E+03   -0.19947E-07   -0.22213E-07   400   0.582E-04    0.643E-03
DAV:  31    -0.162944321272E+03   -0.49622E-07   -0.13493E-07   400   0.505E-04    0.725E-03
DAV:  32    -0.162944321282E+03   -0.10102E-07   -0.40470E-08   496   0.248E-04    0.703E-03
DAV:  33    -0.162944321307E+03   -0.24316E-07   -0.19865E-07   400   0.648E-04    0.613E-03
DAV:  34    -0.162944321356E+03   -0.49517E-07   -0.50162E-08   400   0.255E-04    0.581E-03
DAV:  35    -0.162944321371E+03   -0.14758E-07   -0.17421E-09   480   0.477E-05    0.581E-03
DAV:  36    -0.162944321409E+03   -0.37840E-07   -0.56867E-10   416   0.383E-05    0.576E-03
DAV:  37    -0.162944321832E+03   -0.42287E-06   -0.18968E-06   400   0.198E-03    0.128E-03
DAV:  38    -0.162944321968E+03   -0.13581E-06   -0.41078E-07   496   0.730E-04    0.114E-03
DAV:  39    -0.162944322001E+03   -0.33167E-07   -0.19744E-08   464   0.153E-04    0.119E-03
DAV:  40    -0.162944322001E+03   -0.57207E-09   -0.16461E-09   432   0.627E-05
 183 F= -.16346182E+03 E0= -.16346182E+03  d E =-.155506E-10
       N       E                     dE             d eps       ncg     rms          rms(c)
DAV:   1    -0.162944730584E+03   -0.40858E-03   -0.25862E+00   400   0.146E+00    0.311E-01
DAV:   2    -0.162945012854E+03   -0.28227E-03   -0.10886E-02   416   0.103E-01    0.303E-01
DAV:   3    -0.162944540974E+03    0.47188E-03   -0.16279E-04   512   0.151E-02    0.281E-01
DAV:   4    -0.162943589470E+03    0.95150E-03   -0.71259E-03   464   0.118E-01    0.116E-01
DAV:   5    -0.162943552445E+03    0.37024E-04   -0.60627E-04   448   0.262E-02    0.117E-01
DAV:   6    -0.162943567444E+03   -0.14998E-04   -0.12536E-05   480   0.459E-03    0.121E-01
DAV:   7    -0.162943727528E+03   -0.16008E-03   -0.16367E-03   416   0.452E-02    0.538E-02
DAV:   8    -0.162943777737E+03   -0.50209E-04   -0.20404E-04   464   0.195E-02    0.301E-02
DAV:   9    -0.162943773803E+03    0.39349E-05   -0.40642E-05   496   0.687E-03    0.250E-02
DAV:  10    -0.162943773542E+03    0.26011E-06   -0.31696E-05   416   0.791E-03    0.122E-02
DAV:  11    -0.162943780580E+03   -0.70374E-05   -0.28495E-05   448   0.641E-03    0.102E-02
DAV:  12    -0.162943780440E+03    0.13992E-06   -0.28922E-06   432   0.184E-03    0.105E-02
DAV:  13    -0.162943780354E+03    0.86031E-07   -0.41575E-08   432   0.232E-04    0.106E-02
DAV:  14    -0.162943779607E+03    0.74708E-06   -0.14846E-05   416   0.566E-03    0.339E-03
DAV:  15    -0.162943779942E+03   -0.33558E-06   -0.15578E-06   416   0.169E-03    0.302E-03
DAV:  16    -0.162943779927E+03    0.15018E-07   -0.12814E-07   400   0.413E-04    0.292E-03
DAV:  17    -0.162943779927E+03    0.39927E-09   -0.16940E-07   528   0.600E-04    0.284E-03
DAV:  18    -0.162943779975E+03   -0.48043E-07   -0.44535E-07   400   0.112E-03    0.128E-03
DAV:  19    -0.162943779998E+03   -0.22833E-07   -0.69267E-08   464   0.325E-04    0.115E-03
DAV:  20    -0.162943780003E+03   -0.51532E-08   -0.45284E-09   416   0.107E-04
 184 F= -.16346130E+03 E0= -.16346130E+03  d E =-.127737E-10
       N       E                     dE             d eps       ncg     rms          rms(c)
DAV:   1    -0.162946290948E+03   -0.25109E-02   -0.51112E+00   384   0.210E+00    0.497E-01
DAV:   2    -0.162947182575E+03   -0.89163E-03   -0.25669E-02   416   0.155E-01    0.506E-01
DAV:   3    -0.162947267167E+03   -0.84592E-04   -0.39243E-04   480   0.200E-02    0.533E-01
DAV:   4    -0.162943158920E+03    0.41082E-02   -0.23344E-02   480   0.203E-01    0.186E-01
DAV:   5    -0.162943260970E+03   -0.10205E-03   -0.13845E-03   448   0.370E-02    0.193E-01
DAV:   6    -0.162943600638E+03   -0.33967E-03   -0.57052E-04   608   0.281E-02    0.232E-01
DAV:   7    -0.162943546546E+03    0.54092E-04   -0.54972E-03   416   0.841E-02    0.482E-02
DAV:   8    -0.162943779213E+03   -0.23267E-03   -0.14603E-03   480   0.414E-02    0.101E-01
DAV:   9    -0.162943691175E+03    0.88038E-04   -0.97260E-05   432   0.121E-02    0.833E-02
DAV:  10    -0.162943569160E+03    0.12201E-03   -0.26446E-04   416   0.193E-02    0.400E-02
DAV:  11    -0.162943535893E+03    0.33267E-04   -0.19090E-04   448   0.157E-02    0.144E-02
DAV:  12    -0.162943538316E+03   -0.24227E-05   -0.17215E-05   448   0.430E-03    0.140E-02
DAV:  13    -0.162943536648E+03    0.16680E-05   -0.70370E-06   416   0.286E-03    0.132E-02
DAV:  14    -0.162943534667E+03    0.19808E-05   -0.16329E-05   416   0.633E-03    0.487E-03
DAV:  15    -0.162943535012E+03   -0.34483E-06   -0.27538E-06   448   0.191E-03    0.373E-03
DAV:  16    -0.162943535068E+03   -0.56616E-07   -0.10335E-07   416   0.419E-04    0.349E-03
DAV:  17    -0.162943535105E+03   -0.36454E-07   -0.14227E-07   496   0.571E-04    0.336E-03
DAV:  18    -0.162943535336E+03   -0.23069E-06   -0.18701E-06   416   0.169E-03    0.264E-03
DAV:  19    -0.162943535418E+03   -0.82363E-07   -0.28048E-07   464   0.633E-04    0.335E-03
DAV:  20    -0.162943535418E+03   -0.34106E-09   -0.11208E-08   480   0.123E-04
 185 F= -.16346077E+03 E0= -.16346077E+03  d E =-.180972E-10
       N       E                     dE             d eps       ncg     rms          rms(c)
DAV:   1    -0.162948323849E+03   -0.47884E-02   -0.25898E+00   400   0.143E+00    0.292E-01
DAV:   2    -0.162948451454E+03   -0.12761E-03   -0.10615E-02   416   0.106E-01    0.291E-01
DAV:   3    -0.162948163261E+03    0.28819E-03   -0.10787E-04   496   0.955E-03    0.291E-01
DAV:   4    -0.162948233021E+03   -0.69760E-04   -0.19906E-05   480   0.544E-03    0.302E-01
DAV:   5    -0.162947055204E+03    0.11778E-02   -0.92156E-03   416   0.130E-01    0.973E-02
DAV:   6    -0.162947430216E+03   -0.37501E-03   -0.15793E-03   480   0.387E-02    0.106E-01
DAV:   7    -0.162947291628E+03    0.13859E-03   -0.15349E-04   448   0.174E-02    0.773E-02
DAV:   8    -0.162947328209E+03   -0.36581E-04   -0.46204E-04   416   0.278E-02    0.306E-02
DAV:   9    -0.162947346575E+03   -0.18366E-04   -0.50269E-05   496   0.766E-03    0.310E-02
DAV:  10    -0.162947352151E+03   -0.55755E-05   -0.31377E-06   448   0.212E-03    0.317E-02
DAV:  11    -0.162947338181E+03    0.13970E-04   -0.21258E-04   416   0.185E-02    0.111E-02
DAV:  12    -0.162947338894E+03   -0.71306E-06   -0.39243E-05   464   0.874E-03    0.744E-03
DAV:  13    -0.162947339493E+03   -0.59898E-06   -0.47638E-06   432   0.232E-03    0.898E-03
DAV:  14    -0.162947340183E+03   -0.68963E-06   -0.89772E-07   416   0.114E-03    0.102E-02
DAV:  15    -0.162947339462E+03    0.72046E-06   -0.24989E-06   432   0.254E-03    0.702E-03
DAV:  16    -0.162947339483E+03   -0.21084E-07   -0.56987E-07   416   0.928E-04    0.593E-03
DAV:  17    -0.162947339520E+03   -0.36216E-07   -0.34858E-08   512   0.240E-04    0.564E-03
DAV:  18    -0.162947339347E+03    0.17226E-06   -0.39805E-07   416   0.925E-04    0.379E-03
DAV:  19    -0.162947339344E+03    0.38553E-08   -0.24451E-07   432   0.622E-04    0.257E-03
DAV:  20    -0.162947339374E+03   -0.30548E-07   -0.17450E-08   432   0.141E-04    0.246E-03
DAV:  21    -0.162947339364E+03    0.99553E-08   -0.24781E-08   416   0.180E-04
 186 F= -.16346493E+03 E0= -.16346493E+03  d E =-.174194E-10
       N       E                     dE             d eps       ncg     rms          rms(c)
DAV:   1    -0.162947787594E+03   -0.44822E-03   -0.52846E+00   384   0.192E+00    0.318E-01
DAV:   2    -0.162948753487E+03   -0.96589E-03   -0.22393E-02   416   0.141E-01    0.307E-01
DAV:   3    -0.162948231687E+03    0.52180E-03   -0.17646E-04   480   0.112E-02    0.300E-01
DAV:   4    -0.162947323140E+03    0.90855E-03   -0.60437E-03   432   0.839E-02    0.955E-02
DAV:   5    -0.162947677146E+03   -0.35401E-03   -0.13171E-03   496   0.327E-02    0.812E-02
DAV:   6    -0.162947783284E+03   -0.10614E-03   -0.67640E-05   480   0.952E-03    0.891E-02
DAV:   7    -0.162947685756E+03    0.97528E-04   -0.90450E-04   416   0.444E-02    0.362E-02
DAV:   8    -0.162947799623E+03   -0.11387E-03   -0.21963E-04   416   0.159E-02    0.322E-02
DAV:   9    -0.162947800510E+03   -0.88695E-06   -0.10008E-05   464   0.297E-03    0.338E-02
DAV:  10    -0.162947787946E+03    0.12564E-04   -0.58022E-06   480   0.279E-03    0.304E-02
DAV:  11    -0.162947760865E+03    0.27081E-04   -0.99172E-05   416   0.125E-02    0.991E-03
DAV:  12    -0.162947763120E+03   -0.22551E-05   -0.15284E-05   432   0.388E-03    0.853E-03
DAV:  13    -0.162947763752E+03   -0.63138E-06   -0.13296E-06   464   0.160E-03    0.934E-03
DAV:  14    -0.162947763151E+03    0.60084E-06   -0.50151E-06   416   0.320E-03    0.592E-03
DAV:  15    -0.162947763131E+03    0.19626E-07   -0.23858E-06   432   0.217E-03    0.377E-03
DAV:  16    -0.162947763249E+03   -0.11772E-06   -0.33578E-07   416   0.705E-04    0.371E-03
DAV:  17    -0.162947763371E+03   -0.12209E-06   -0.14833E-07   432   0.510E-04    0.283E-03
DAV:  18    -0.162947763717E+03   -0.34571E-06   -0.90430E-07   400   0.114E-03    0.231E-03
DAV:  19    -0.162947763736E+03   -0.19524E-07   -0.71279E-08   400   0.329E-04    0.237E-03
DAV:  20    -0.162947763737E+03   -0.33651E-09   -0.36232E-10   448   0.382E-05
 187 F= -.16346492E+03 E0= -.16346492E+03  d E =-.127607E-10
