       N       E                     dE             d eps       ncg     rms           ort
DAV:   1     0.196690050747E+04    0.19669E+04   -0.27990E+05  1792   0.105E+03  
DAV:   2    -0.321340837509E+03   -0.22882E+04   -0.21033E+04  1792   0.221E+02  
DAV:   3    -0.469566573559E+03   -0.14823E+03   -0.14720E+03  1792   0.533E+01  
DAV:   4    -0.471082938922E+03   -0.15164E+01   -0.15163E+01  1792   0.634E+00  
DAV:   5    -0.471101881625E+03   -0.18943E-01   -0.18942E-01  1792   0.744E-01  
DAV:   6    -0.471102248937E+03   -0.36731E-03   -0.36731E-03  1792   0.109E-01  
DAV:   7    -0.471102258492E+03   -0.95548E-05   -0.95532E-05  1792   0.172E-02  
DAV:   8    -0.471102258792E+03   -0.30012E-06   -0.29926E-06  1792   0.297E-03  
DAV:   9    -0.471102258802E+03   -0.10128E-07   -0.95600E-08  1792   0.534E-04  
DAV:  10    -0.471102258802E+03   -0.40745E-09    0.61843E-09  1792   0.990E-05  
DAV:  11    -0.471102258802E+03    0.58208E-10    0.99834E-09  1792   0.145E-05  
DAV:  12    -0.471102258803E+03   -0.72760E-09    0.10168E-08  1792   0.663E-06  
DAV:  13    -0.471102258802E+03    0.66939E-09    0.10151E-08  1792   0.376E-06  
DAV:  14    -0.471102258802E+03    0.11642E-09    0.10152E-08  1792   0.216E-06  
DAV:  15    -0.471102258802E+03   -0.34925E-09    0.10130E-08  1792   0.125E-06  
SDA:  16    -0.310939676426E+03    0.16016E+03    0.10130E-08  1792   0.450E+03   0.000E+00
CGA:  17    -0.404286517195E+03   -0.93347E+02   -0.93499E+02  1792   0.272E+02  -0.868E+01
CGA:  18    -0.412171688854E+03   -0.78852E+01   -0.80455E+01  1792   0.151E+02  -0.168E+01
CGA:  19    -0.414927747016E+03   -0.27561E+01   -0.27406E+01  1792   0.597E+01  -0.403E+00
CGA:  20    -0.415882590960E+03   -0.95484E+00   -0.95278E+00  1792   0.152E+01  -0.245E-01
CGA:  21    -0.416189260337E+03   -0.30667E+00   -0.30669E+00  1792   0.520E+00   0.407E-02
CGA:  22    -0.416294928754E+03   -0.10567E+00   -0.10567E+00  1792   0.142E+00   0.513E-03
CGA:  23    -0.416326196581E+03   -0.31268E-01   -0.31264E-01  1792   0.486E-01   0.213E-03
CGA:  24    -0.416337740303E+03   -0.11544E-01   -0.11542E-01  1792   0.155E-01   0.599E-04
CGA:  25    -0.416341845229E+03   -0.41049E-02   -0.41048E-02  1792   0.622E-02   0.148E-05
CGA:  26    -0.416343498670E+03   -0.16534E-02   -0.16541E-02  1792   0.210E-02  -0.148E-04
CGA:  27    -0.416344078733E+03   -0.58006E-03   -0.58043E-03  1792   0.723E-03  -0.648E-05
CGA:  28    -0.416344282647E+03   -0.20391E-03   -0.20390E-03  1792   0.258E-03   0.399E-06
CGA:  29    -0.416344358749E+03   -0.76102E-04   -0.76014E-04  1792   0.820E-04   0.138E-05
CGA:  30    -0.416344382968E+03   -0.24218E-04   -0.24185E-04  1792   0.277E-04   0.602E-06
CGA:  31    -0.416344391284E+03   -0.83159E-05   -0.83085E-05  1792   0.776E-05   0.146E-06
CGA:  32    -0.416344393689E+03   -0.24056E-05   -0.24119E-05  1792   0.232E-05  -0.944E-07
CGA:  33    -0.416344394405E+03   -0.71594E-06   -0.72405E-06  1792   0.700E-06  -0.123E-06
CGA:  34    -0.416344394649E+03   -0.24374E-06   -0.26075E-06  1792   0.256E-06  -0.123E-06
SDA:  35    -0.416344394728E+03   -0.79126E-07   -0.11457E-06  1792   0.186E-06  -0.128E-06
CGA:  36    -0.416344394774E+03   -0.46137E-07   -0.47988E-07  1792   0.280E-07   0.339E-07
SDA:  37    -0.416344394779E+03   -0.48021E-08   -0.66515E-08  1792   0.917E-08   0.162E-07
   1 F= -.41634439E+03 E0= -.41634439E+03  d E =-.166739E-10  mag=     0.0000
       N       E                     dE             d eps       ncg     rms           ort
SDA:   1    -0.416200764225E+03    0.14363E+00    0.00000E+00  1792   0.313E+00   0.000E+00
CGA:   2    -0.416325421048E+03   -0.12466E+00   -0.12467E+00  1792   0.538E-01  -0.134E-04
CGA:   3    -0.416339791814E+03   -0.14371E-01   -0.14370E-01  1792   0.118E-01  -0.432E-05
CGA:   4    -0.416342248057E+03   -0.24562E-02   -0.24569E-02  1792   0.386E-02   0.349E-05
CGA:   5    -0.416342899180E+03   -0.65112E-03   -0.65117E-03  1792   0.120E-02  -0.996E-06
CGA:   6    -0.416343157422E+03   -0.25824E-03   -0.25821E-03  1792   0.348E-03  -0.524E-06
CGA:   7    -0.416343239156E+03   -0.81734E-04   -0.81750E-04  1792   0.124E-03   0.637E-06
CGA:   8    -0.416343267212E+03   -0.28057E-04   -0.28077E-04  1792   0.358E-04   0.607E-06
CGA:   9    -0.416343276279E+03   -0.90669E-05   -0.90684E-05  1792   0.898E-05   0.223E-06
CGA:  10    -0.416343278526E+03   -0.22469E-05   -0.22478E-05  1792   0.209E-05   0.436E-07
CGA:  11    -0.416343279068E+03   -0.54160E-06   -0.54204E-06  1792   0.477E-06   0.223E-07
CGA:  12    -0.416343279207E+03   -0.13867E-06   -0.13959E-06  1792   0.130E-06  -0.731E-08
CGA:  13    -0.416343279248E+03   -0.41837E-07   -0.43864E-07  1792   0.414E-07  -0.146E-07
CGA:  14    -0.416343279259E+03   -0.10928E-07   -0.11281E-07  1792   0.107E-07   0.145E-08
CGA:  15    -0.416343279263E+03   -0.32160E-08   -0.40880E-08  1792   0.384E-08  -0.113E-08
   2 F= -.41634328E+03 E0= -.41634328E+03  d E =-.226224E-10  mag=    -0.0000
       N       E                     dE             d eps       ncg     rms           ort
SDA:   1    -0.415771590847E+03    0.57169E+00    0.00000E+00  1792   0.126E+01   0.000E+00
CGA:   2    -0.416273507872E+03   -0.50192E+00   -0.50214E+00  1792   0.207E+00  -0.115E-02
CGA:   3    -0.416329791200E+03   -0.56283E-01   -0.56282E-01  1792   0.466E-01   0.206E-04
CGA:   4    -0.416339245527E+03   -0.94543E-02   -0.94575E-02  1792   0.143E-01   0.104E-04
CGA:   5    -0.416341783312E+03   -0.25378E-02   -0.25383E-02  1792   0.477E-02   0.617E-06
CGA:   6    -0.416342800321E+03   -0.10170E-02   -0.10169E-02  1792   0.131E-02  -0.605E-06
CGA:   7    -0.416343122499E+03   -0.32218E-03   -0.32218E-03  1792   0.493E-03   0.150E-06
CGA:   8    -0.416343234566E+03   -0.11207E-03   -0.11209E-03  1792   0.140E-03   0.488E-06
CGA:   9    -0.416343270212E+03   -0.35646E-04   -0.35649E-04  1792   0.350E-04   0.206E-06
CGA:  10    -0.416343278942E+03   -0.87306E-05   -0.87325E-05  1792   0.785E-05   0.110E-06
CGA:  11    -0.416343281007E+03   -0.20646E-05   -0.20649E-05  1792   0.183E-05   0.145E-06
CGA:  12    -0.416343281520E+03   -0.51353E-06   -0.51278E-06  1792   0.457E-06   0.920E-07
CGA:  13    -0.416343281665E+03   -0.14481E-06   -0.14417E-06  1792   0.124E-06   0.306E-07
CGA:  14    -0.416343281707E+03   -0.41509E-07   -0.41744E-07  1792   0.356E-07   0.699E-08
CGA:  15    -0.416343281719E+03   -0.12784E-07   -0.13736E-07  1792   0.110E-07  -0.173E-08
SDA:  16    -0.416343281723E+03   -0.33833E-08   -0.46006E-08  1792   0.456E-08  -0.336E-08
   3 F= -.41634328E+03 E0= -.41634328E+03  d E =-.106594E-10  mag=     0.0000
       N       E                     dE             d eps       ncg     rms           ort
SDA:   1    -0.416064077005E+03    0.27920E+00    0.00000E+00  1792   0.605E+00   0.000E+00
CGA:   2    -0.416307749786E+03   -0.24367E+00   -0.24372E+00  1792   0.103E+00  -0.291E-03
CGA:   3    -0.416335914378E+03   -0.28165E-01   -0.28167E-01  1792   0.225E-01   0.339E-04
CGA:   4    -0.416340578506E+03   -0.46641E-02   -0.46636E-02  1792   0.679E-02  -0.306E-06
CGA:   5    -0.416341806010E+03   -0.12275E-02   -0.12275E-02  1792   0.234E-02   0.550E-06
CGA:   6    -0.416342298905E+03   -0.49289E-03   -0.49303E-03  1792   0.640E-03   0.163E-05
CGA:   7    -0.416342458830E+03   -0.15993E-03   -0.15993E-03  1792   0.229E-03   0.306E-06
CGA:   8    -0.416342510433E+03   -0.51603E-04   -0.51590E-04  1792   0.650E-04  -0.250E-06
CGA:   9    -0.416342526840E+03   -0.16407E-04   -0.16408E-04  1792   0.159E-04   0.358E-07
CGA:  10    -0.416342530790E+03   -0.39496E-05   -0.39521E-05  1792   0.356E-05   0.919E-07
CGA:  11    -0.416342531760E+03   -0.97074E-06   -0.97124E-06  1792   0.833E-06  -0.300E-07
CGA:  12    -0.416342532001E+03   -0.24110E-06   -0.24226E-06  1792   0.220E-06  -0.260E-07
CGA:  13    -0.416342532062E+03   -0.60725E-07   -0.61073E-07  1792   0.530E-07   0.139E-07
CGA:  14    -0.416342532077E+03   -0.15018E-07   -0.15449E-07  1792   0.140E-07   0.989E-08
CGA:  15    -0.416342532082E+03   -0.49549E-08   -0.54494E-08  1792   0.453E-08   0.104E-08
   4 F= -.41634253E+03 E0= -.41634253E+03  d E =-.858879E-11  mag=    -0.0000
       N       E                     dE             d eps       ncg     rms           ort
SDA:   1    -0.415786360031E+03    0.55617E+00    0.00000E+00  1792   0.123E+01   0.000E+00
CGA:   2    -0.416247188584E+03   -0.46083E+00   -0.46091E+00  1792   0.313E+00   0.542E-03
CGA:   3    -0.416324849222E+03   -0.77661E-01   -0.77659E-01  1792   0.535E-01   0.878E-04
CGA:   4    -0.416337869817E+03   -0.13021E-01   -0.13022E-01  1792   0.154E-01   0.242E-04
CGA:   5    -0.416340820696E+03   -0.29509E-02   -0.29525E-02  1792   0.570E-02   0.925E-06
CGA:   6    -0.416341930598E+03   -0.11099E-02   -0.11100E-02  1792   0.147E-02  -0.167E-05
CGA:   7    -0.416342304825E+03   -0.37423E-03   -0.37428E-03  1792   0.500E-03   0.171E-05
CGA:   8    -0.416342418979E+03   -0.11415E-03   -0.11428E-03  1792   0.144E-03   0.236E-05
CGA:   9    -0.416342454254E+03   -0.35275E-04   -0.35307E-04  1792   0.360E-04   0.988E-06
CGA:  10    -0.416342463730E+03   -0.94759E-05   -0.94794E-05  1792   0.873E-05   0.288E-06
CGA:  11    -0.416342466045E+03   -0.23151E-05   -0.23173E-05  1792   0.200E-05   0.241E-06
CGA:  12    -0.416342466607E+03   -0.56200E-06   -0.56227E-06  1792   0.527E-06   0.931E-07
CGA:  13    -0.416342466784E+03   -0.17694E-06   -0.17807E-06  1792   0.157E-06  -0.104E-07
CGA:  14    -0.416342466839E+03   -0.54817E-07   -0.57092E-07  1792   0.533E-07  -0.165E-07
CGA:  15    -0.416342466856E+03   -0.16844E-07   -0.18139E-07  1792   0.186E-07  -0.793E-08
SDA:  16    -0.416342466860E+03   -0.45620E-08   -0.94535E-08  1792   0.190E-07  -0.132E-07
   5 F= -.41634247E+03 E0= -.41634247E+03  d E =-.826330E-11  mag=     0.0000
       N       E                     dE             d eps       ncg     rms           ort
SDA:   1    -0.416056305350E+03    0.28616E+00    0.00000E+00  1792   0.631E+00   0.000E+00
CGA:   2    -0.416308503568E+03   -0.25220E+00   -0.25221E+00  1792   0.986E-01  -0.988E-04
CGA:   3    -0.416336658276E+03   -0.28155E-01   -0.28160E-01  1792   0.197E-01   0.543E-04
CGA:   4    -0.416340852945E+03   -0.41947E-02   -0.41942E-02  1792   0.654E-02  -0.344E-06
CGA:   5    -0.416342007296E+03   -0.11544E-02   -0.11542E-02  1792   0.205E-02  -0.297E-06
CGA:   6    -0.416342441713E+03   -0.43442E-03   -0.43448E-03  1792   0.598E-03   0.560E-06
CGA:   7    -0.416342591699E+03   -0.14999E-03   -0.14999E-03  1792   0.216E-03  -0.950E-08
CGA:   8    -0.416342640683E+03   -0.48984E-04   -0.48981E-04  1792   0.615E-04  -0.424E-07
CGA:   9    -0.416342655847E+03   -0.15164E-04   -0.15173E-04  1792   0.148E-04   0.265E-06
CGA:  10    -0.416342659571E+03   -0.37247E-05   -0.37293E-05  1792   0.334E-05   0.175E-06
CGA:  11    -0.416342660479E+03   -0.90773E-06   -0.90821E-06  1792   0.795E-06   0.821E-09
CGA:  12    -0.416342660707E+03   -0.22754E-06   -0.22789E-06  1792   0.210E-06   0.266E-08
CGA:  13    -0.416342660763E+03   -0.56134E-07   -0.56725E-07  1792   0.515E-07   0.305E-07
SDA:  14    -0.416342660778E+03   -0.14850E-07   -0.15503E-07  1792   0.156E-07   0.132E-07
SDA:  15    -0.416342660782E+03   -0.46639E-08   -0.10467E-07  1792   0.275E-07  -0.116E-07
   6 F= -.41634266E+03 E0= -.41634266E+03  d E =-.102265E-10  mag=    -0.0000
       N       E                     dE             d eps       ncg     rms           ort
SDA:   1    -0.415783153774E+03    0.55951E+00    0.00000E+00  1792   0.122E+01   0.000E+00
CGA:   2    -0.416273411871E+03   -0.49026E+00   -0.49052E+00  1792   0.202E+00  -0.136E-02
CGA:   3    -0.416330661671E+03   -0.57250E-01   -0.57243E-01  1792   0.395E-01  -0.157E-03
CGA:   4    -0.416339128603E+03   -0.84669E-02   -0.84686E-02  1792   0.122E-01   0.359E-05
CGA:   5    -0.416341360551E+03   -0.22319E-02   -0.22329E-02  1792   0.417E-02   0.444E-05
CGA:   6    -0.416342229775E+03   -0.86922E-03   -0.86941E-03  1792   0.119E-02   0.237E-05
CGA:   7    -0.416342534599E+03   -0.30482E-03   -0.30484E-03  1792   0.407E-03   0.797E-06
CGA:   8    -0.416342627470E+03   -0.92870E-04   -0.92870E-04  1792   0.122E-03   0.415E-08
CGA:   9    -0.416342657343E+03   -0.29873E-04   -0.29867E-04  1792   0.280E-04  -0.235E-06
CGA:  10    -0.416342664659E+03   -0.73166E-05   -0.73166E-05  1792   0.660E-05  -0.694E-07
CGA:  11    -0.416342666369E+03   -0.17100E-05   -0.17110E-05  1792   0.149E-05   0.670E-07
CGA:  12    -0.416342666798E+03   -0.42904E-06   -0.42893E-06  1792   0.378E-06   0.377E-07
CGA:  13    -0.416342666921E+03   -0.12303E-06   -0.12386E-06  1792   0.105E-06  -0.780E-08
CGA:  14    -0.416342666955E+03   -0.33811E-07   -0.34428E-07  1792   0.291E-07  -0.178E-08
CGA:  15    -0.416342666964E+03   -0.84983E-08   -0.89374E-08  1792   0.709E-08   0.193E-08
   7 F= -.41634267E+03 E0= -.41634267E+03  d E =-.118441E-10  mag=    -0.0000
       N       E                     dE             d eps       ncg     rms           ort
SDA:   1    -0.416070863638E+03    0.27180E+00    0.00000E+00  1792   0.600E+00   0.000E+00
CGA:   2    -0.416306654427E+03   -0.23579E+00   -0.23583E+00  1792   0.119E+00  -0.105E-03
CGA:   3    -0.416335993201E+03   -0.29339E-01   -0.29337E-01  1792   0.282E-01   0.313E-05
CGA:   4    -0.416342142632E+03   -0.61494E-02   -0.61499E-02  1792   0.632E-02   0.107E-05
CGA:   5    -0.416343548669E+03   -0.14060E-02   -0.14060E-02  1792   0.198E-02  -0.148E-05
CGA:   6    -0.416343967714E+03   -0.41905E-03   -0.41900E-03  1792   0.739E-03  -0.560E-06
CGA:   7    -0.416344127546E+03   -0.15983E-03   -0.15985E-03  1792   0.206E-03   0.300E-06
CGA:   8    -0.416344180903E+03   -0.53357E-04   -0.53368E-04  1792   0.560E-04   0.799E-06
CGA:   9    -0.416344194396E+03   -0.13493E-04   -0.13506E-04  1792   0.150E-04   0.418E-06
CGA:  10    -0.416344198078E+03   -0.36818E-05   -0.36869E-05  1792   0.309E-05   0.199E-06
CGA:  11    -0.416344198937E+03   -0.85934E-06   -0.85892E-06  1792   0.684E-06   0.991E-07
CGA:  12    -0.416344199132E+03   -0.19473E-06   -0.19482E-06  1792   0.177E-06   0.369E-07
CGA:  13    -0.416344199184E+03   -0.52059E-07   -0.52363E-07  1792   0.446E-07   0.199E-07
SDA:  14    -0.416344199197E+03   -0.13039E-07   -0.13492E-07  1792   0.131E-07   0.116E-07
CGA:  15    -0.416344199202E+03   -0.46275E-08   -0.54956E-08  1792   0.638E-08  -0.978E-09
   8 F= -.41634420E+03 E0= -.41634420E+03  d E =-.219252E-10  mag=    -0.0000
       N       E                     dE             d eps       ncg     rms           ort
SDA:   1    -0.415802128917E+03    0.54207E+00    0.00000E+00  1792   0.122E+01   0.000E+00
CGA:   2    -0.416263256303E+03   -0.46113E+00   -0.46170E+00  1792   0.270E+00  -0.392E-02
CGA:   3    -0.416325397499E+03   -0.62141E-01   -0.62154E-01  1792   0.632E-01   0.102E-03
CGA:   4    -0.416339594208E+03   -0.14197E-01   -0.14200E-01  1792   0.137E-01  -0.630E-06
CGA:   5    -0.416342820599E+03   -0.32264E-02   -0.32271E-02  1792   0.341E-02   0.412E-05
CGA:   6    -0.416343767696E+03   -0.94710E-03   -0.94710E-03  1792   0.104E-02   0.171E-05
CGA:   7    -0.416344013722E+03   -0.24603E-03   -0.24601E-03  1792   0.373E-03  -0.216E-06
CGA:   8    -0.416344093825E+03   -0.80103E-04   -0.80101E-04  1792   0.939E-04  -0.344E-07
CGA:   9    -0.416344118044E+03   -0.24219E-04   -0.24224E-04  1792   0.199E-04   0.251E-06
CGA:  10    -0.416344123192E+03   -0.51481E-05   -0.51500E-05  1792   0.478E-05   0.909E-07
CGA:  11    -0.416344124426E+03   -0.12340E-05   -0.12346E-05  1792   0.106E-05   0.120E-07
CGA:  12    -0.416344124738E+03   -0.31223E-06   -0.31260E-06  1792   0.236E-06   0.728E-08
CGA:  13    -0.416344124810E+03   -0.71777E-07   -0.71781E-07  1792   0.616E-07   0.139E-07
CGA:  14    -0.416344124830E+03   -0.20133E-07   -0.20500E-07  1792   0.161E-07   0.423E-08
CGA:  15    -0.416344124836E+03   -0.58790E-08   -0.65933E-08  1792   0.502E-08  -0.947E-09
   9 F= -.41634412E+03 E0= -.41634412E+03  d E =-.138107E-10  mag=    -0.0000
       N       E                     dE             d eps       ncg     rms           ort
SDA:   1    -0.416075374197E+03    0.26875E+00    0.00000E+00  1792   0.595E+00   0.000E+00
CGA:   2    -0.416303917576E+03   -0.22854E+00   -0.22860E+00  1792   0.131E+00  -0.177E-03
CGA:   3    -0.416334562331E+03   -0.30645E-01   -0.30640E-01  1792   0.312E-01  -0.845E-05
CGA:   4    -0.416341545018E+03   -0.69827E-02   -0.69827E-02  1792   0.712E-02  -0.554E-05
CGA:   5    -0.416343216870E+03   -0.16719E-02   -0.16721E-02  1792   0.181E-02   0.105E-05
CGA:   6    -0.416343723038E+03   -0.50617E-03   -0.50617E-03  1792   0.547E-03   0.102E-05
CGA:   7    -0.416343853006E+03   -0.12997E-03   -0.12995E-03  1792   0.199E-03  -0.426E-06
CGA:   8    -0.416343895712E+03   -0.42706E-04   -0.42705E-04  1792   0.500E-04  -0.404E-07
CGA:   9    -0.416343908557E+03   -0.12844E-04   -0.12850E-04  1792   0.108E-04   0.299E-06
CGA:  10    -0.416343911366E+03   -0.28095E-05   -0.28129E-05  1792   0.265E-05   0.183E-06
CGA:  11    -0.416343912070E+03   -0.70398E-06   -0.70527E-06  1792   0.634E-06   0.717E-07
CGA:  12    -0.416343912261E+03   -0.19109E-06   -0.19081E-06  1792   0.157E-06   0.321E-07
CGA:  13    -0.416343912309E+03   -0.47970E-07   -0.48205E-07  1792   0.429E-07   0.210E-07
CGA:  14    -0.416343912323E+03   -0.13431E-07   -0.13754E-07  1792   0.115E-07   0.869E-08
CGA:  15    -0.416343912327E+03   -0.37762E-08   -0.41917E-08  1792   0.330E-08   0.247E-08
  10 F= -.41634391E+03 E0= -.41634391E+03  d E =-.200090E-10  mag=    -0.0000
       N       E                     dE             d eps       ncg     rms           ort
SDA:   1    -0.415800382011E+03    0.54353E+00    0.00000E+00  1792   0.122E+01   0.000E+00
CGA:   2    -0.416262116361E+03   -0.46173E+00   -0.46216E+00  1792   0.275E+00  -0.400E-02
CGA:   3    -0.416324716078E+03   -0.62600E-01   -0.62624E-01  1792   0.663E-01   0.136E-03
CGA:   4    -0.416339221067E+03   -0.14505E-01   -0.14510E-01  1792   0.139E-01  -0.235E-05
CGA:   5    -0.416342578403E+03   -0.33573E-02   -0.33579E-02  1792   0.344E-02   0.288E-05
CGA:   6    -0.416343531821E+03   -0.95342E-03   -0.95344E-03  1792   0.102E-02   0.192E-05
CGA:   7    -0.416343776311E+03   -0.24449E-03   -0.24449E-03  1792   0.370E-03   0.133E-06
CGA:   8    -0.416343855922E+03   -0.79611E-04   -0.79608E-04  1792   0.978E-04  -0.293E-07
CGA:   9    -0.416343880985E+03   -0.25064E-04   -0.25066E-04  1792   0.205E-04   0.849E-07
CGA:  10    -0.416343886385E+03   -0.53997E-05   -0.54010E-05  1792   0.497E-05   0.371E-07
CGA:  11    -0.416343887686E+03   -0.13009E-05   -0.13013E-05  1792   0.117E-05   0.457E-08
CGA:  12    -0.416343888036E+03   -0.34970E-06   -0.35022E-06  1792   0.273E-06  -0.139E-08
CGA:  13    -0.416343888124E+03   -0.88214E-07   -0.88536E-07  1792   0.772E-07   0.266E-08
CGA:  14    -0.416343888150E+03   -0.26383E-07   -0.27026E-07  1792   0.230E-07  -0.319E-08
CGA:  15    -0.416343888158E+03   -0.79963E-08   -0.92338E-08  1792   0.761E-08  -0.435E-08
  11 F= -.41634389E+03 E0= -.41634389E+03  d E =-.178858E-10  mag=    -0.0000
       N       E                     dE             d eps       ncg     rms           ort
SDA:   1    -0.416056043915E+03    0.28784E+00    0.00000E+00  1792   0.612E+00   0.000E+00
CGA:   2    -0.416288719780E+03   -0.23268E+00   -0.23289E+00  1792   0.150E+00  -0.212E-02
CGA:   3    -0.416322379999E+03   -0.33660E-01   -0.33692E-01  1792   0.367E-01   0.583E-04
CGA:   4    -0.416330179840E+03   -0.77998E-02   -0.78021E-02  1792   0.741E-02  -0.610E-05
CGA:   5    -0.416332042085E+03   -0.18622E-02   -0.18623E-02  1792   0.177E-02   0.227E-05
CGA:   6    -0.416332531273E+03   -0.48919E-03   -0.48926E-03  1792   0.546E-03   0.306E-05
CGA:   7    -0.416332663819E+03   -0.13255E-03   -0.13252E-03  1792   0.211E-03  -0.295E-06
CGA:   8    -0.416332710729E+03   -0.46910E-04   -0.46878E-04  1792   0.570E-04  -0.424E-06
CGA:   9    -0.416332725973E+03   -0.15244E-04   -0.15242E-04  1792   0.139E-04  -0.163E-06
CGA:  10    -0.416332729770E+03   -0.37970E-05   -0.37968E-05  1792   0.364E-05  -0.611E-07
CGA:  11    -0.416332730762E+03   -0.99149E-06   -0.99125E-06  1792   0.976E-06  -0.600E-07
CGA:  12    -0.416332731067E+03   -0.30570E-06   -0.30863E-06  1792   0.254E-06  -0.649E-07
CGA:  13    -0.416332731150E+03   -0.82786E-07   -0.84723E-07  1792   0.753E-07  -0.229E-07
CGA:  14    -0.416332731172E+03   -0.21580E-07   -0.22288E-07  1792   0.187E-07  -0.353E-08
CGA:  15    -0.416332731177E+03   -0.55516E-08   -0.63544E-08  1792   0.455E-08  -0.939E-09
  12 F= -.41633273E+03 E0= -.41633273E+03  d E =-.768530E-11  mag=     0.0000
       N       E                     dE             d eps       ncg     rms           ort
SDA:   1    -0.415764123673E+03    0.56861E+00    0.00000E+00  1792   0.120E+01   0.000E+00
CGA:   2    -0.416217343226E+03   -0.45322E+00   -0.45259E+00  1792   0.394E+00   0.717E-02
CGA:   3    -0.416306072333E+03   -0.88729E-01   -0.88654E-01  1792   0.867E-01  -0.206E-03
CGA:   4    -0.416324590408E+03   -0.18518E-01   -0.18502E-01  1792   0.211E-01  -0.403E-04
CGA:   5    -0.416329758866E+03   -0.51685E-02   -0.51689E-02  1792   0.501E-02   0.137E-06
CGA:   6    -0.416331309796E+03   -0.15509E-02   -0.15509E-02  1792   0.146E-02  -0.203E-05
CGA:   7    -0.416331711048E+03   -0.40125E-03   -0.40126E-03  1792   0.507E-03   0.216E-06
CGA:   8    -0.416331838023E+03   -0.12697E-03   -0.12703E-03  1792   0.166E-03   0.125E-05
CGA:   9    -0.416331877578E+03   -0.39555E-04   -0.39605E-04  1792   0.461E-04   0.978E-06
CGA:  10    -0.416331890073E+03   -0.12495E-04   -0.12503E-04  1792   0.991E-05   0.543E-06
CGA:  11    -0.416331893054E+03   -0.29812E-05   -0.29792E-05  1792   0.256E-05   0.165E-06
CGA:  12    -0.416331893755E+03   -0.70146E-06   -0.70311E-06  1792   0.641E-06   0.815E-07
CGA:  13    -0.416331893967E+03   -0.21140E-06   -0.21068E-06  1792   0.153E-06   0.351E-07
CGA:  14    -0.416331894025E+03   -0.58280E-07   -0.59689E-07  1792   0.543E-07  -0.867E-08
CGA:  15    -0.416331894044E+03   -0.19216E-07   -0.21132E-07  1792   0.200E-07  -0.125E-07
CGA:  16    -0.416331894052E+03   -0.82291E-08   -0.88578E-08  1792   0.582E-08  -0.321E-08
  13 F= -.41633189E+03 E0= -.41633189E+03  d E =-.119057E-10  mag=    -0.0000
       N       E                     dE             d eps       ncg     rms           ort
SDA:   1    -0.416060725541E+03    0.27117E+00    0.00000E+00  1792   0.611E+00   0.000E+00
CGA:   2    -0.416293713992E+03   -0.23299E+00   -0.23313E+00  1792   0.164E+00  -0.152E-02
CGA:   3    -0.416330528137E+03   -0.36814E-01   -0.36846E-01  1792   0.405E-01   0.293E-04
CGA:   4    -0.416339072955E+03   -0.85448E-02   -0.85473E-02  1792   0.823E-02  -0.358E-05
CGA:   5    -0.416341146952E+03   -0.20740E-02   -0.20742E-02  1792   0.209E-02   0.527E-05
CGA:   6    -0.416341746850E+03   -0.59990E-03   -0.59998E-03  1792   0.639E-03   0.424E-05
CGA:   7    -0.416341909938E+03   -0.16309E-03   -0.16310E-03  1792   0.254E-03   0.306E-06
CGA:   8    -0.416341967591E+03   -0.57653E-04   -0.57615E-04  1792   0.764E-04  -0.519E-06
CGA:   9    -0.416341987899E+03   -0.20308E-04   -0.20293E-04  1792   0.194E-04  -0.595E-06
CGA:  10    -0.416341993249E+03   -0.53498E-05   -0.53467E-05  1792   0.519E-05  -0.295E-06
CGA:  11    -0.416341994663E+03   -0.14147E-05   -0.14135E-05  1792   0.144E-05  -0.133E-06
CGA:  12    -0.416341995095E+03   -0.43156E-06   -0.43413E-06  1792   0.360E-06  -0.879E-07
CGA:  13    -0.416341995216E+03   -0.12069E-06   -0.12480E-06  1792   0.108E-06  -0.441E-07
CGA:  14    -0.416341995246E+03   -0.30355E-07   -0.31259E-07  1792   0.279E-07  -0.686E-08
CGA:  15    -0.416341995254E+03   -0.75961E-08   -0.82481E-08  1792   0.631E-08   0.120E-08
  14 F= -.41634200E+03 E0= -.41634200E+03  d E =-.203129E-10  mag=    -0.0000
       N       E                     dE             d eps       ncg     rms           ort
SDA:   1    -0.415796674346E+03    0.54532E+00    0.00000E+00  1792   0.121E+01   0.000E+00
CGA:   2    -0.416247741853E+03   -0.45107E+00   -0.45112E+00  1792   0.321E+00   0.643E-03
CGA:   3    -0.416319757337E+03   -0.72015E-01   -0.71999E-01  1792   0.728E-01  -0.263E-04
CGA:   4    -0.416336214510E+03   -0.16457E-01   -0.16456E-01  1792   0.172E-01  -0.179E-04
CGA:   5    -0.416340313995E+03   -0.40995E-02   -0.41006E-02  1792   0.437E-02   0.718E-05
CGA:   6    -0.416341551148E+03   -0.12372E-02   -0.12372E-02  1792   0.142E-02   0.796E-06
CGA:   7    -0.416341871294E+03   -0.32015E-03   -0.32010E-03  1792   0.529E-03  -0.884E-06
CGA:   8    -0.416341990269E+03   -0.11898E-03   -0.11898E-03  1792   0.130E-03   0.471E-07
CGA:   9    -0.416342025638E+03   -0.35369E-04   -0.35370E-04  1792   0.315E-04   0.877E-06
CGA:  10    -0.416342033759E+03   -0.81210E-05   -0.81286E-05  1792   0.832E-05   0.436E-06
CGA:  11    -0.416342036055E+03   -0.22962E-05   -0.22965E-05  1792   0.205E-05   0.150E-06
CGA:  12    -0.416342036698E+03   -0.64250E-06   -0.64066E-06  1792   0.536E-06   0.627E-07
CGA:  13    -0.416342036863E+03   -0.16473E-06   -0.16447E-06  1792   0.142E-06   0.434E-07
CGA:  14    -0.416342036912E+03   -0.49447E-07   -0.49875E-07  1792   0.376E-07   0.562E-08
SDA:  15    -0.416342036927E+03   -0.14734E-07   -0.17271E-07  1792   0.161E-07  -0.105E-07
SDA:  16    -0.416342036931E+03   -0.45766E-08   -0.55915E-08  1792   0.493E-08  -0.498E-08
  15 F= -.41634204E+03 E0= -.41634204E+03  d E =-.201385E-10  mag=     0.0000
       N       E                     dE             d eps       ncg     rms           ort
SDA:   1    -0.416072653241E+03    0.26938E+00    0.00000E+00  1792   0.606E+00   0.000E+00
CGA:   2    -0.416303738472E+03   -0.23109E+00   -0.23126E+00  1792   0.134E+00  -0.130E-02
CGA:   3    -0.416334545021E+03   -0.30807E-01   -0.30813E-01  1792   0.329E-01   0.372E-04
CGA:   4    -0.416341666274E+03   -0.71213E-02   -0.71220E-02  1792   0.681E-02  -0.121E-05
CGA:   5    -0.416343335126E+03   -0.16689E-02   -0.16690E-02  1792   0.168E-02   0.132E-05
CGA:   6    -0.416343800817E+03   -0.46569E-03   -0.46571E-03  1792   0.514E-03   0.161E-05
CGA:   7    -0.416343921018E+03   -0.12020E-03   -0.12021E-03  1792   0.186E-03   0.172E-06
CGA:   8    -0.416343961563E+03   -0.40545E-04   -0.40541E-04  1792   0.471E-04  -0.637E-07
CGA:   9    -0.416343973915E+03   -0.12352E-04   -0.12353E-04  1792   0.102E-04  -0.600E-08
CGA:  10    -0.416343976526E+03   -0.26108E-05   -0.26118E-05  1792   0.253E-05   0.197E-07
CGA:  11    -0.416343977184E+03   -0.65785E-06   -0.65837E-06  1792   0.568E-06  -0.302E-08
CGA:  12    -0.416343977361E+03   -0.17683E-06   -0.17759E-06  1792   0.140E-06  -0.744E-08
CGA:  13    -0.416343977406E+03   -0.45278E-07   -0.46011E-07  1792   0.422E-07  -0.289E-08
CGA:  14    -0.416343977420E+03   -0.13948E-07   -0.14813E-07  1792   0.128E-07  -0.377E-08
CGA:  15    -0.416343977423E+03   -0.35798E-08   -0.42287E-08  1792   0.312E-08  -0.578E-09
  16 F= -.41634398E+03 E0= -.41634398E+03  d E =-.784304E-11  mag=     0.0000
       N       E                     dE             d eps       ncg     rms           ort
SDA:   1    -0.415799722964E+03    0.54425E+00    0.00000E+00  1792   0.122E+01   0.000E+00
CGA:   2    -0.416263229775E+03   -0.46351E+00   -0.46373E+00  1792   0.268E+00  -0.292E-02
CGA:   3    -0.416325523195E+03   -0.62293E-01   -0.62310E-01  1792   0.624E-01   0.875E-04
CGA:   4    -0.416339383257E+03   -0.13860E-01   -0.13865E-01  1792   0.136E-01  -0.784E-05
CGA:   5    -0.416342655287E+03   -0.32720E-02   -0.32732E-02  1792   0.333E-02   0.442E-05
CGA:   6    -0.416343576569E+03   -0.92128E-03   -0.92126E-03  1792   0.106E-02   0.156E-05
CGA:   7    -0.416343815667E+03   -0.23910E-03   -0.23907E-03  1792   0.387E-03  -0.807E-07
CGA:   8    -0.416343901500E+03   -0.85833E-04   -0.85822E-04  1792   0.923E-04  -0.134E-06
CGA:   9    -0.416343926329E+03   -0.24829E-04   -0.24836E-04  1792   0.203E-04   0.226E-06
CGA:  10    -0.416343931523E+03   -0.51944E-05   -0.51972E-05  1792   0.499E-05   0.586E-07
CGA:  11    -0.416343932840E+03   -0.13172E-05   -0.13175E-05  1792   0.114E-05  -0.380E-08
CGA:  12    -0.416343933188E+03   -0.34817E-06   -0.34854E-06  1792   0.273E-06   0.613E-08
CGA:  13    -0.416343933277E+03   -0.88541E-07   -0.88944E-07  1792   0.802E-07   0.387E-08
CGA:  14    -0.416343933305E+03   -0.27590E-07   -0.28171E-07  1792   0.232E-07  -0.251E-08
CGA:  15    -0.416343933312E+03   -0.78580E-08   -0.83541E-08  1792   0.611E-08  -0.865E-09
  17 F= -.41634393E+03 E0= -.41634393E+03  d E =-.178630E-10  mag=     0.0000
       N       E                     dE             d eps       ncg     rms           ort
SDA:   1    -0.416057746926E+03    0.28619E+00    0.00000E+00  1792   0.614E+00   0.000E+00
CGA:   2    -0.416290968900E+03   -0.23322E+00   -0.23342E+00  1792   0.149E+00  -0.201E-02
CGA:   3    -0.416324295050E+03   -0.33326E-01   -0.33359E-01  1792   0.370E-01   0.481E-04
CGA:   4    -0.416332123030E+03   -0.78280E-02   -0.78302E-02  1792   0.722E-02  -0.784E-05
CGA:   5    -0.416333965825E+03   -0.18428E-02   -0.18428E-02  1792   0.175E-02   0.176E-05
CGA:   6    -0.416334444128E+03   -0.47830E-03   -0.47839E-03  1792   0.575E-03   0.302E-05
CGA:   7    -0.416334574900E+03   -0.13077E-03   -0.13075E-03  1792   0.217E-03  -0.183E-06
CGA:   8    -0.416334624658E+03   -0.49758E-04   -0.49721E-04  1792   0.568E-04  -0.542E-06
CGA:   9    -0.416334640016E+03   -0.15358E-04   -0.15356E-04  1792   0.141E-04  -0.930E-07
CGA:  10    -0.416334643750E+03   -0.37346E-05   -0.37350E-05  1792   0.369E-05   0.118E-08
CGA:  11    -0.416334644752E+03   -0.10018E-05   -0.10019E-05  1792   0.960E-06  -0.479E-07
CGA:  12    -0.416334645063E+03   -0.31090E-06   -0.31443E-06  1792   0.257E-06  -0.631E-07
CGA:  13    -0.416334645144E+03   -0.81192E-07   -0.82893E-07  1792   0.771E-07  -0.181E-07
CGA:  14    -0.416334645167E+03   -0.22548E-07   -0.23086E-07  1792   0.186E-07  -0.257E-08
CGA:  15    -0.416334645172E+03   -0.55443E-08   -0.60837E-08  1792   0.432E-08   0.250E-09
  18 F= -.41633465E+03 E0= -.41633465E+03  d E =-.123907E-10  mag=    -0.0000
       N       E                     dE             d eps       ncg     rms           ort
SDA:   1    -0.415772117218E+03    0.56253E+00    0.00000E+00  1792   0.120E+01   0.000E+00
CGA:   2    -0.416219778339E+03   -0.44766E+00   -0.44703E+00  1792   0.393E+00   0.664E-02
CGA:   3    -0.416308068229E+03   -0.88290E-01   -0.88222E-01  1792   0.881E-01  -0.201E-03
CGA:   4    -0.416326786150E+03   -0.18718E-01   -0.18705E-01  1792   0.207E-01  -0.336E-04
CGA:   5    -0.416332014415E+03   -0.52283E-02   -0.52289E-02  1792   0.498E-02   0.548E-05
CGA:   6    -0.416333523850E+03   -0.15094E-02   -0.15095E-02  1792   0.147E-02  -0.217E-05
CGA:   7    -0.416333915916E+03   -0.39207E-03   -0.39208E-03  1792   0.539E-03   0.406E-06
CGA:   8    -0.416334042981E+03   -0.12706E-03   -0.12713E-03  1792   0.171E-03   0.139E-05
CGA:   9    -0.416334085098E+03   -0.42117E-04   -0.42151E-04  1792   0.447E-04   0.969E-06
CGA:  10    -0.416334097661E+03   -0.12562E-04   -0.12561E-04  1792   0.101E-04   0.478E-06
CGA:  11    -0.416334100599E+03   -0.29388E-05   -0.29372E-05  1792   0.280E-05   0.172E-06
CGA:  12    -0.416334101378E+03   -0.77881E-06   -0.77980E-06  1792   0.652E-06   0.104E-06
CGA:  13    -0.416334101596E+03   -0.21758E-06   -0.21635E-06  1792   0.165E-06   0.444E-07
CGA:  14    -0.416334101657E+03   -0.61475E-07   -0.62856E-07  1792   0.572E-07  -0.104E-07
CGA:  15    -0.416334101677E+03   -0.19289E-07   -0.20710E-07  1792   0.168E-07  -0.808E-08
CGA:  16    -0.416334101685E+03   -0.86075E-08   -0.90619E-08  1792   0.593E-08  -0.383E-08
  19 F= -.41633410E+03 E0= -.41633410E+03  d E =-.912578E-11  mag=     0.0000
       N       E                     dE             d eps       ncg     rms           ort
SDA:   1    -0.416065836990E+03    0.26826E+00    0.00000E+00  1792   0.606E+00   0.000E+00
CGA:   2    -0.416295397894E+03   -0.22956E+00   -0.22964E+00  1792   0.163E+00  -0.831E-03
CGA:   3    -0.416331784092E+03   -0.36386E-01   -0.36409E-01  1792   0.396E-01   0.156E-04
CGA:   4    -0.416340223982E+03   -0.84399E-02   -0.84407E-02  1792   0.832E-02  -0.678E-05
CGA:   5    -0.416342330034E+03   -0.21061E-02   -0.21062E-02  1792   0.206E-02   0.297E-05
CGA:   6    -0.416342922912E+03   -0.59288E-03   -0.59294E-03  1792   0.614E-03   0.342E-05
CGA:   7    -0.416343083642E+03   -0.16073E-03   -0.16071E-03  1792   0.231E-03  -0.508E-06
CGA:   8    -0.416343135847E+03   -0.52205E-04   -0.52172E-04  1792   0.706E-04  -0.444E-06
CGA:   9    -0.416343153933E+03   -0.18086E-04   -0.18084E-04  1792   0.174E-04  -0.642E-07
CGA:  10    -0.416343158744E+03   -0.48107E-05   -0.48120E-05  1792   0.438E-05   0.649E-07
CGA:  11    -0.416343159971E+03   -0.12270E-05   -0.12273E-05  1792   0.125E-05  -0.271E-07
CGA:  12    -0.416343160353E+03   -0.38192E-06   -0.38343E-06  1792   0.317E-06  -0.503E-07
CGA:  13    -0.416343160454E+03   -0.10101E-06   -0.10178E-06  1792   0.807E-07  -0.558E-08
CGA:  14    -0.416343160479E+03   -0.24862E-07   -0.25392E-07  1792   0.200E-07   0.213E-09
CGA:  15    -0.416343160485E+03   -0.61336E-08   -0.67811E-08  1792   0.473E-08   0.275E-09
  20 F= -.41634316E+03 E0= -.41634316E+03  d E =-.160830E-10  mag=    -0.0000
       N       E                     dE             d eps       ncg     rms           ort
SDA:   1    -0.415794592673E+03    0.54857E+00    0.00000E+00  1792   0.123E+01   0.000E+00
CGA:   2    -0.416258765160E+03   -0.46417E+00   -0.46490E+00  1792   0.288E+00  -0.522E-02
CGA:   3    -0.416323319976E+03   -0.64555E-01   -0.64588E-01  1792   0.693E-01   0.190E-03
CGA:   4    -0.416338234712E+03   -0.14915E-01   -0.14920E-01  1792   0.143E-01   0.502E-05
CGA:   5    -0.416341742983E+03   -0.35083E-02   -0.35087E-02  1792   0.348E-02   0.390E-05
CGA:   6    -0.416342715843E+03   -0.97286E-03   -0.97287E-03  1792   0.103E-02   0.212E-05
CGA:   7    -0.416342966404E+03   -0.25056E-03   -0.25056E-03  1792   0.371E-03   0.291E-06
CGA:   8    -0.416343047794E+03   -0.81390E-04   -0.81387E-04  1792   0.102E-03  -0.282E-07
CGA:   9    -0.416343074462E+03   -0.26668E-04   -0.26669E-04  1792   0.220E-04  -0.113E-07
CGA:  10    -0.416343080361E+03   -0.58989E-05   -0.58992E-05  1792   0.560E-05  -0.369E-07
CGA:  11    -0.416343081843E+03   -0.14823E-05   -0.14823E-05  1792   0.140E-05  -0.354E-07
CGA:  12    -0.416343082277E+03   -0.43347E-06   -0.43497E-06  1792   0.350E-06  -0.225E-07
CGA:  13    -0.416343082394E+03   -0.11748E-06   -0.11895E-06  1792   0.105E-06  -0.115E-07
CGA:  14    -0.416343082430E+03   -0.35339E-07   -0.36931E-07  1792   0.326E-07  -0.121E-07
CGA:  15    -0.416343082440E+03   -0.10354E-07   -0.11859E-07  1792   0.979E-08  -0.649E-08
SDA:  16    -0.416343082442E+03   -0.24083E-08   -0.37657E-08  1792   0.419E-08  -0.332E-08
  21 F= -.41634308E+03 E0= -.41634308E+03  d E =-.214450E-10  mag=    -0.0000
       N       E                     dE             d eps       ncg     rms           ort
SDA:   1    -0.416068638558E+03    0.27444E+00    0.00000E+00  1792   0.599E+00   0.000E+00
CGA:   2    -0.416296757364E+03   -0.22812E+00   -0.22807E+00  1792   0.151E+00   0.762E-03
CGA:   3    -0.416331663740E+03   -0.34906E-01   -0.34888E-01  1792   0.339E-01  -0.260E-04
CGA:   4    -0.416339403526E+03   -0.77398E-02   -0.77392E-02  1792   0.806E-02  -0.725E-05
CGA:   5    -0.416341284449E+03   -0.18809E-02   -0.18814E-02  1792   0.210E-02   0.444E-07
CGA:   6    -0.416341884839E+03   -0.60039E-03   -0.60040E-03  1792   0.645E-03   0.427E-06
CGA:   7    -0.416342038973E+03   -0.15413E-03   -0.15410E-03  1792   0.242E-03  -0.632E-06
CGA:   8    -0.416342092322E+03   -0.53349E-04   -0.53357E-04  1792   0.646E-04   0.740E-07
CGA:   9    -0.416342109461E+03   -0.17139E-04   -0.17152E-04  1792   0.157E-04   0.551E-06
CGA:  10    -0.416342113554E+03   -0.40926E-05   -0.41017E-05  1792   0.406E-05   0.321E-06
CGA:  11    -0.416342114670E+03   -0.11157E-05   -0.11177E-05  1792   0.103E-05   0.111E-06
CGA:  12    -0.416342114992E+03   -0.32234E-06   -0.32199E-06  1792   0.265E-06   0.394E-07
CGA:  13    -0.416342115073E+03   -0.81076E-07   -0.81176E-07  1792   0.692E-07   0.265E-07
CGA:  14    -0.416342115096E+03   -0.23130E-07   -0.23554E-07  1792   0.179E-07   0.600E-08
SDA:  15    -0.416342115104E+03   -0.74069E-08   -0.85513E-08  1792   0.776E-08  -0.472E-08
  22 F= -.41634212E+03 E0= -.41634212E+03  d E =-.192432E-10  mag=    -0.0000
       N       E                     dE             d eps       ncg     rms           ort
SDA:   1    -0.415788223180E+03    0.55389E+00    0.00000E+00  1792   0.124E+01   0.000E+00
CGA:   2    -0.416256641385E+03   -0.46842E+00   -0.46910E+00  1792   0.285E+00  -0.564E-02
CGA:   3    -0.416322917961E+03   -0.66277E-01   -0.66321E-01  1792   0.674E-01   0.205E-03
CGA:   4    -0.416337321396E+03   -0.14403E-01   -0.14409E-01  1792   0.139E-01   0.214E-05
CGA:   5    -0.416340766906E+03   -0.34455E-02   -0.34457E-02  1792   0.338E-02   0.285E-05
CGA:   6    -0.416341717957E+03   -0.95105E-03   -0.95107E-03  1792   0.102E-02   0.260E-05
CGA:   7    -0.416341964148E+03   -0.24619E-03   -0.24620E-03  1792   0.379E-03   0.328E-06
CGA:   8    -0.416342047747E+03   -0.83599E-04   -0.83591E-04  1792   0.104E-03  -0.876E-07
CGA:   9    -0.416342075746E+03   -0.27999E-04   -0.27997E-04  1792   0.234E-04  -0.158E-06
CGA:  10    -0.416342082030E+03   -0.62842E-05   -0.62834E-05  1792   0.619E-05  -0.107E-06
CGA:  11    -0.416342083677E+03   -0.16465E-05   -0.16464E-05  1792   0.159E-05  -0.480E-07
CGA:  12    -0.416342084176E+03   -0.49878E-06   -0.50060E-06  1792   0.401E-06  -0.331E-07
CGA:  13    -0.416342084312E+03   -0.13621E-06   -0.13864E-06  1792   0.122E-06  -0.258E-07
CGA:  14    -0.416342084350E+03   -0.38170E-07   -0.39234E-07  1792   0.340E-07  -0.109E-07
CGA:  15    -0.416342084361E+03   -0.10594E-07   -0.11631E-07  1792   0.845E-08  -0.401E-08
SDA:  16    -0.416342084363E+03   -0.24229E-08   -0.35433E-08  1792   0.366E-08  -0.287E-08
  23 F= -.41634208E+03 E0= -.41634208E+03  d E =-.225950E-10  mag=    -0.0000
       N       E                     dE             d eps       ncg     rms           ort
SDA:   1    -0.416062087102E+03    0.28000E+00    0.00000E+00  1792   0.612E+00   0.000E+00
CGA:   2    -0.416292718730E+03   -0.23063E+00   -0.23081E+00  1792   0.147E+00  -0.160E-02
CGA:   3    -0.416325394707E+03   -0.32676E-01   -0.32697E-01  1792   0.359E-01   0.498E-04
CGA:   4    -0.416333047117E+03   -0.76524E-02   -0.76539E-02  1792   0.713E-02  -0.576E-05
CGA:   5    -0.416334846022E+03   -0.17989E-02   -0.17990E-02  1792   0.171E-02   0.170E-05
CGA:   6    -0.416335313262E+03   -0.46724E-03   -0.46729E-03  1792   0.553E-03   0.249E-05
CGA:   7    -0.416335437775E+03   -0.12451E-03   -0.12448E-03  1792   0.201E-03  -0.377E-06
CGA:   8    -0.416335483015E+03   -0.45241E-04   -0.45211E-04  1792   0.486E-04  -0.445E-06
CGA:   9    -0.416335496064E+03   -0.13048E-04   -0.13050E-04  1792   0.117E-04   0.831E-07
CGA:  10    -0.416335498998E+03   -0.29343E-05   -0.29369E-05  1792   0.288E-05   0.700E-07
CGA:  11    -0.416335499769E+03   -0.77115E-06   -0.77146E-06  1792   0.669E-06  -0.200E-07
CGA:  12    -0.416335499989E+03   -0.21930E-06   -0.22220E-06  1792   0.178E-06  -0.395E-07
CGA:  13    -0.416335500044E+03   -0.54963E-07   -0.55869E-07  1792   0.552E-07  -0.773E-08
CGA:  14    -0.416335500061E+03   -0.17244E-07   -0.18010E-07  1792   0.146E-07  -0.322E-08
CGA:  15    -0.416335500066E+03   -0.48240E-08   -0.60491E-08  1792   0.520E-08  -0.344E-08
  24 F= -.41633550E+03 E0= -.41633550E+03  d E =-.853057E-11  mag=     0.0000
       N       E                     dE             d eps       ncg     rms           ort
SDA:   1    -0.415775493492E+03    0.56001E+00    0.00000E+00  1792   0.120E+01   0.000E+00
CGA:   2    -0.416222862144E+03   -0.44737E+00   -0.44702E+00  1792   0.387E+00   0.564E-02
CGA:   3    -0.416309372156E+03   -0.86510E-01   -0.86413E-01  1792   0.851E-01  -0.967E-04
CGA:   4    -0.416327759334E+03   -0.18387E-01   -0.18372E-01  1792   0.209E-01  -0.259E-04
CGA:   5    -0.416332959490E+03   -0.52002E-02   -0.52017E-02  1792   0.493E-02   0.403E-05
CGA:   6    -0.416334462576E+03   -0.15031E-02   -0.15031E-02  1792   0.148E-02  -0.185E-05
CGA:   7    -0.416334853105E+03   -0.39053E-03   -0.39055E-03  1792   0.549E-03   0.319E-06
CGA:   8    -0.416334980951E+03   -0.12785E-03   -0.12792E-03  1792   0.170E-03   0.113E-05
CGA:   9    -0.416335023187E+03   -0.42236E-04   -0.42278E-04  1792   0.437E-04   0.890E-06
CGA:  10    -0.416335035668E+03   -0.12481E-04   -0.12485E-04  1792   0.101E-04   0.454E-06
CGA:  11    -0.416335038594E+03   -0.29257E-05   -0.29269E-05  1792   0.287E-05   0.173E-06
CGA:  12    -0.416335039393E+03   -0.79964E-06   -0.80151E-06  1792   0.662E-06   0.972E-07
CGA:  13    -0.416335039616E+03   -0.22270E-06   -0.22184E-06  1792   0.169E-06   0.401E-07
CGA:  14    -0.416335039677E+03   -0.61314E-07   -0.62014E-07  1792   0.531E-07  -0.529E-08
SDA:  15    -0.416335039697E+03   -0.19732E-07   -0.22302E-07  1792   0.211E-07  -0.141E-07
SDA:  16    -0.416335039704E+03   -0.69922E-08   -0.80638E-08  1792   0.907E-08  -0.838E-08
  25 F= -.41633504E+03 E0= -.41633504E+03  d E =-.208944E-10  mag=    -0.0000
       N       E                     dE             d eps       ncg     rms           ort
SDA:   1    -0.416068712708E+03    0.26633E+00    0.00000E+00  1792   0.603E+00   0.000E+00
CGA:   2    -0.416298893661E+03   -0.23018E+00   -0.23032E+00  1792   0.155E+00  -0.121E-02
CGA:   3    -0.416333418288E+03   -0.34525E-01   -0.34550E-01  1792   0.378E-01   0.362E-04
CGA:   4    -0.416341503001E+03   -0.80847E-02   -0.80860E-02  1792   0.805E-02  -0.473E-05
CGA:   5    -0.416343516507E+03   -0.20135E-02   -0.20136E-02  1792   0.197E-02   0.318E-05
CGA:   6    -0.416344075671E+03   -0.55916E-03   -0.55921E-03  1792   0.604E-03   0.354E-05
CGA:   7    -0.416344227561E+03   -0.15189E-03   -0.15187E-03  1792   0.237E-03  -0.324E-06
CGA:   8    -0.416344280166E+03   -0.52605E-04   -0.52575E-04  1792   0.674E-04  -0.433E-06
CGA:   9    -0.416344297900E+03   -0.17734E-04   -0.17732E-04  1792   0.169E-04  -0.126E-06
CGA:  10    -0.416344302588E+03   -0.46879E-05   -0.46882E-05  1792   0.453E-05  -0.478E-07
CGA:  11    -0.416344303848E+03   -0.12605E-05   -0.12608E-05  1792   0.129E-05  -0.784E-07
CGA:  12    -0.416344304248E+03   -0.40001E-06   -0.40340E-06  1792   0.339E-06  -0.746E-07
CGA:  13    -0.416344304356E+03   -0.10800E-06   -0.10962E-06  1792   0.933E-07  -0.174E-07
CGA:  14    -0.416344304385E+03   -0.28151E-07   -0.28684E-07  1792   0.229E-07  -0.244E-08
CGA:  15    -0.416344304392E+03   -0.70286E-08   -0.74765E-08  1792   0.532E-08   0.183E-09
  26 F= -.41634430E+03 E0= -.41634430E+03  d E =-.808229E-11  mag=     0.0000
       N       E                     dE             d eps       ncg     rms           ort
SDA:   1    -0.415804952892E+03    0.53935E+00    0.00000E+00  1792   0.121E+01   0.000E+00
CGA:   2    -0.416263767170E+03   -0.45881E+00   -0.45941E+00  1792   0.269E+00  -0.359E-02
CGA:   3    -0.416325355945E+03   -0.61589E-01   -0.61597E-01  1792   0.642E-01   0.824E-04
CGA:   4    -0.416339471304E+03   -0.14115E-01   -0.14117E-01  1792   0.145E-01  -0.569E-05
CGA:   5    -0.416342909182E+03   -0.34379E-02   -0.34386E-02  1792   0.347E-02   0.566E-05
CGA:   6    -0.416343886537E+03   -0.97735E-03   -0.97736E-03  1792   0.104E-02   0.204E-05
CGA:   7    -0.416344138291E+03   -0.25175E-03   -0.25174E-03  1792   0.371E-03  -0.611E-07
CGA:   8    -0.416344218083E+03   -0.79792E-04   -0.79791E-04  1792   0.947E-04  -0.291E-07
CGA:   9    -0.416344242297E+03   -0.24214E-04   -0.24218E-04  1792   0.199E-04   0.185E-06
CGA:  10    -0.416344247525E+03   -0.52276E-05   -0.52292E-05  1792   0.465E-05   0.114E-06
CGA:  11    -0.416344248743E+03   -0.12176E-05   -0.12184E-05  1792   0.108E-05   0.466E-07
CGA:  12    -0.416344249056E+03   -0.31356E-06   -0.31336E-06  1792   0.239E-06   0.294E-07
CGA:  13    -0.416344249132E+03   -0.75896E-07   -0.75635E-07  1792   0.634E-07   0.190E-07
CGA:  14    -0.416344249153E+03   -0.21006E-07   -0.21105E-07  1792   0.173E-07   0.621E-08
CGA:  15    -0.416344249159E+03   -0.58426E-08   -0.61823E-08  1792   0.458E-08   0.233E-08
  27 F= -.41634425E+03 E0= -.41634425E+03  d E =-.861713E-11  mag=    -0.0000
       N       E                     dE             d eps       ncg     rms           ort
SDA:   1    -0.416076259683E+03    0.26799E+00    0.00000E+00  1792   0.597E+00   0.000E+00
CGA:   2    -0.416304648054E+03   -0.22839E+00   -0.22854E+00  1792   0.133E+00  -0.879E-03
CGA:   3    -0.416334704875E+03   -0.30057E-01   -0.30059E-01  1792   0.332E-01   0.241E-04
CGA:   4    -0.416341912403E+03   -0.72075E-02   -0.72079E-02  1792   0.720E-02  -0.382E-05
CGA:   5    -0.416343639692E+03   -0.17273E-02   -0.17274E-02  1792   0.177E-02   0.698E-06
CGA:   6    -0.416344134934E+03   -0.49524E-03   -0.49525E-03  1792   0.518E-03   0.127E-05
CGA:   7    -0.416344261394E+03   -0.12646E-03   -0.12645E-03  1792   0.184E-03  -0.361E-06
CGA:   8    -0.416344300735E+03   -0.39341E-04   -0.39337E-04  1792   0.474E-04  -0.666E-07
CGA:   9    -0.416344312784E+03   -0.12049E-04   -0.12053E-04  1792   0.952E-05   0.198E-06
CGA:  10    -0.416344315288E+03   -0.25033E-05   -0.25046E-05  1792   0.224E-05   0.124E-06
CGA:  11    -0.416344315868E+03   -0.58069E-06   -0.58149E-06  1792   0.506E-06   0.362E-07
CGA:  12    -0.416344316019E+03   -0.15069E-06   -0.15089E-06  1792   0.114E-06   0.117E-07
CGA:  13    -0.416344316053E+03   -0.34030E-07   -0.34354E-07  1792   0.301E-07   0.126E-07
CGA:  14    -0.416344316062E+03   -0.89494E-08   -0.94093E-08  1792   0.815E-08   0.625E-08
  28 F= -.41634432E+03 E0= -.41634432E+03  d E =-.209369E-10  mag=     0.0000
       N       E                     dE             d eps       ncg     rms           ort
SDA:   1    -0.415803571993E+03    0.54074E+00    0.00000E+00  1792   0.122E+01   0.000E+00
CGA:   2    -0.416259351190E+03   -0.45578E+00   -0.45639E+00  1792   0.289E+00  -0.313E-02
CGA:   3    -0.416324344954E+03   -0.64994E-01   -0.65001E-01  1792   0.677E-01   0.953E-04
CGA:   4    -0.416339267949E+03   -0.14923E-01   -0.14924E-01  1792   0.152E-01  -0.563E-06
CGA:   5    -0.416342860511E+03   -0.35926E-02   -0.35932E-02  1792   0.374E-02   0.786E-05
CGA:   6    -0.416343914032E+03   -0.10535E-02   -0.10535E-02  1792   0.110E-02   0.112E-05
CGA:   7    -0.416344181993E+03   -0.26796E-03   -0.26795E-03  1792   0.389E-03  -0.218E-06
CGA:   8    -0.416344266035E+03   -0.84042E-04   -0.84048E-04  1792   0.102E-03   0.111E-06
CGA:   9    -0.416344291940E+03   -0.25905E-04   -0.25908E-04  1792   0.210E-04   0.314E-06
CGA:  10    -0.416344297492E+03   -0.55520E-05   -0.55524E-05  1792   0.499E-05   0.144E-06
CGA:  11    -0.416344298795E+03   -0.13035E-05   -0.13040E-05  1792   0.115E-05   0.452E-07
CGA:  12    -0.416344299132E+03   -0.33691E-06   -0.33641E-06  1792   0.259E-06   0.336E-07
CGA:  13    -0.416344299211E+03   -0.79293E-07   -0.78859E-07  1792   0.685E-07   0.285E-07
CGA:  14    -0.416344299234E+03   -0.22876E-07   -0.22882E-07  1792   0.189E-07   0.992E-08
CGA:  15    -0.416344299241E+03   -0.68685E-08   -0.73723E-08  1792   0.554E-08   0.179E-08
  29 F= -.41634430E+03 E0= -.41634430E+03  d E =-.108730E-10  mag=    -0.0000
       N       E                     dE             d eps       ncg     rms           ort
SDA:   1    -0.416050841643E+03    0.29346E+00    0.00000E+00  1792   0.618E+00   0.000E+00
CGA:   2    -0.416284863490E+03   -0.23402E+00   -0.23443E+00  1792   0.162E+00  -0.292E-02
CGA:   3    -0.416320857582E+03   -0.35994E-01   -0.36022E-01  1792   0.404E-01   0.118E-03
CGA:   4    -0.416329304557E+03   -0.84470E-02   -0.84492E-02  1792   0.775E-02  -0.236E-05
CGA:   5    -0.416331283326E+03   -0.19788E-02   -0.19788E-02  1792   0.195E-02   0.178E-05
CGA:   6    -0.416331824023E+03   -0.54070E-03   -0.54070E-03  1792   0.570E-03   0.377E-05
CGA:   7    -0.416331968253E+03   -0.14423E-03   -0.14422E-03  1792   0.228E-03  -0.208E-06
CGA:   8    -0.416332019503E+03   -0.51251E-04   -0.51223E-04  1792   0.669E-04  -0.535E-06
CGA:   9    -0.416332037159E+03   -0.17656E-04   -0.17654E-04  1792   0.163E-04  -0.343E-06
CGA:  10    -0.416332041692E+03   -0.45330E-05   -0.45349E-05  1792   0.427E-05  -0.121E-06
CGA:  11    -0.416332042858E+03   -0.11657E-05   -0.11664E-05  1792   0.115E-05  -0.765E-07
CGA:  12    -0.416332043208E+03   -0.35002E-06   -0.35385E-06  1792   0.290E-06  -0.771E-07
CGA:  13    -0.416332043303E+03   -0.94893E-07   -0.98028E-07  1792   0.844E-07  -0.297E-07
CGA:  14    -0.416332043327E+03   -0.23952E-07   -0.24605E-07  1792   0.211E-07  -0.385E-08
CGA:  15    -0.416332043333E+03   -0.62719E-08   -0.68097E-08  1792   0.495E-08  -0.618E-10
  30 F= -.41633204E+03 E0= -.41633204E+03  d E =-.109981E-10  mag=    -0.0000
       N       E                     dE             d eps       ncg     rms           ort
SDA:   1    -0.415762060567E+03    0.56998E+00    0.00000E+00  1792   0.120E+01   0.000E+00
CGA:   2    -0.416214948375E+03   -0.45289E+00   -0.45207E+00  1792   0.401E+00   0.783E-02
CGA:   3    -0.416304944962E+03   -0.89997E-01   -0.89938E-01  1792   0.894E-01  -0.236E-03
CGA:   4    -0.416323885469E+03   -0.18941E-01   -0.18926E-01  1792   0.209E-01  -0.440E-04
CGA:   5    -0.416329069640E+03   -0.51842E-02   -0.51844E-02  1792   0.499E-02   0.626E-06
CGA:   6    -0.416330605422E+03   -0.15358E-02   -0.15358E-02  1792   0.141E-02  -0.239E-05
CGA:   7    -0.416330999176E+03   -0.39375E-03   -0.39376E-03  1792   0.482E-03   0.146E-06
CGA:   8    -0.416331121852E+03   -0.12268E-03   -0.12272E-03  1792   0.156E-03   0.144E-05
CGA:   9    -0.416331159060E+03   -0.37208E-04   -0.37251E-04  1792   0.441E-04   0.100E-05
CGA:  10    -0.416331170867E+03   -0.11807E-04   -0.11813E-04  1792   0.952E-05   0.546E-06
CGA:  11    -0.416331173747E+03   -0.28803E-05   -0.28770E-05  1792   0.232E-05   0.173E-06
CGA:  12    -0.416331174389E+03   -0.64263E-06   -0.64373E-06  1792   0.596E-06   0.853E-07
CGA:  13    -0.416331174583E+03   -0.19307E-06   -0.19242E-06  1792   0.137E-06   0.373E-07
CGA:  14    -0.416331174636E+03   -0.53129E-07   -0.54449E-07  1792   0.496E-07  -0.703E-08
CGA:  15    -0.416331174653E+03   -0.16895E-07   -0.18263E-07  1792   0.159E-07  -0.792E-08
SDA:  16    -0.416331174661E+03   -0.80909E-08   -0.86152E-08  1792   0.585E-08  -0.414E-08
  31 F= -.41633117E+03 E0= -.41633117E+03  d E =-.225657E-10  mag=    -0.0000
       N       E                     dE             d eps       ncg     rms           ort
SDA:   1    -0.416064257930E+03    0.26692E+00    0.00000E+00  1792   0.607E+00   0.000E+00
CGA:   2    -0.416295577785E+03   -0.23132E+00   -0.23143E+00  1792   0.163E+00  -0.105E-02
CGA:   3    -0.416332247909E+03   -0.36670E-01   -0.36692E-01  1792   0.395E-01   0.244E-04
CGA:   4    -0.416340699937E+03   -0.84520E-02   -0.84532E-02  1792   0.828E-02  -0.673E-05
CGA:   5    -0.416342779844E+03   -0.20799E-02   -0.20801E-02  1792   0.210E-02   0.354E-05
CGA:   6    -0.416343382684E+03   -0.60284E-03   -0.60288E-03  1792   0.620E-03   0.361E-05
CGA:   7    -0.416343544614E+03   -0.16193E-03   -0.16191E-03  1792   0.244E-03  -0.400E-06
CGA:   8    -0.416343598731E+03   -0.54117E-04   -0.54090E-04  1792   0.718E-04  -0.373E-06
CGA:   9    -0.416343617411E+03   -0.18681E-04   -0.18677E-04  1792   0.179E-04  -0.152E-06
CGA:  10    -0.416343622349E+03   -0.49379E-05   -0.49380E-05  1792   0.467E-05  -0.489E-07
CGA:  11    -0.416343623651E+03   -0.13018E-05   -0.13019E-05  1792   0.129E-05  -0.575E-07
CGA:  12    -0.416343624041E+03   -0.38980E-06   -0.39172E-06  1792   0.330E-06  -0.628E-07
CGA:  13    -0.416343624146E+03   -0.10517E-06   -0.10665E-06  1792   0.850E-07  -0.125E-07
CGA:  14    -0.416343624172E+03   -0.26033E-07   -0.26607E-07  1792   0.217E-07  -0.237E-08
CGA:  15    -0.416343624179E+03   -0.70213E-08   -0.74854E-08  1792   0.536E-08  -0.113E-08
  32 F= -.41634362E+03 E0= -.41634362E+03  d E =-.141919E-10  mag=    -0.0000
       N       E                     dE             d eps       ncg     rms           ort
SDA:   1    -0.415794637064E+03    0.54899E+00    0.00000E+00  1792   0.123E+01   0.000E+00
CGA:   2    -0.416260186137E+03   -0.46555E+00   -0.46622E+00  1792   0.281E+00  -0.466E-02
CGA:   3    -0.416324355929E+03   -0.64170E-01   -0.64190E-01  1792   0.660E-01   0.149E-03
CGA:   4    -0.416338944310E+03   -0.14588E-01   -0.14593E-01  1792   0.135E-01   0.809E-05
CGA:   5    -0.416342266224E+03   -0.33219E-02   -0.33224E-02  1792   0.333E-02   0.541E-05
CGA:   6    -0.416343204357E+03   -0.93813E-03   -0.93813E-03  1792   0.981E-03   0.162E-05
CGA:   7    -0.416343445047E+03   -0.24069E-03   -0.24069E-03  1792   0.364E-03   0.178E-06
CGA:   8    -0.416343523098E+03   -0.78050E-04   -0.78049E-04  1792   0.952E-04  -0.571E-08
CGA:   9    -0.416343548239E+03   -0.25141E-04   -0.25142E-04  1792   0.200E-04   0.360E-07
CGA:  10    -0.416343553575E+03   -0.53357E-05   -0.53362E-05  1792   0.515E-05   0.421E-08
CGA:  11    -0.416343554916E+03   -0.13418E-05   -0.13422E-05  1792   0.123E-05   0.282E-08
CGA:  12    -0.416343555300E+03   -0.38378E-06   -0.38454E-06  1792   0.310E-06  -0.306E-08
CGA:  13    -0.416343555406E+03   -0.10581E-06   -0.10714E-06  1792   0.100E-06  -0.109E-07
CGA:  14    -0.416343555439E+03   -0.33288E-07   -0.34579E-07  1792   0.301E-07  -0.917E-08
CGA:  15    -0.416343555449E+03   -0.96043E-08   -0.10418E-07  1792   0.785E-08  -0.315E-08
  33 F= -.41634356E+03 E0= -.41634356E+03  d E =-.184481E-10  mag=     0.0000
       N       E                     dE             d eps       ncg     rms           ort
SDA:   1    -0.416072915533E+03    0.27064E+00    0.00000E+00  1792   0.602E+00   0.000E+00
CGA:   2    -0.416302658199E+03   -0.22974E+00   -0.22978E+00  1792   0.137E+00  -0.896E-04
CGA:   3    -0.416334390748E+03   -0.31733E-01   -0.31724E-01  1792   0.319E-01  -0.941E-05
CGA:   4    -0.416341672610E+03   -0.72819E-02   -0.72823E-02  1792   0.699E-02  -0.340E-05
CGA:   5    -0.416343348289E+03   -0.16757E-02   -0.16760E-02  1792   0.185E-02   0.115E-05
CGA:   6    -0.416343865554E+03   -0.51726E-03   -0.51726E-03  1792   0.572E-03   0.103E-06
CGA:   7    -0.416343997466E+03   -0.13191E-03   -0.13189E-03  1792   0.216E-03  -0.449E-06
CGA:   8    -0.416344044688E+03   -0.47222E-04   -0.47228E-04  1792   0.508E-04   0.572E-07
CGA:   9    -0.416344058392E+03   -0.13704E-04   -0.13710E-04  1792   0.116E-04   0.422E-06
CGA:  10    -0.416344061353E+03   -0.29617E-05   -0.29666E-05  1792   0.307E-05   0.166E-06
CGA:  11    -0.416344062184E+03   -0.83058E-06   -0.83181E-06  1792   0.737E-06   0.690E-07
CGA:  12    -0.416344062416E+03   -0.23170E-06   -0.23105E-06  1792   0.197E-06   0.414E-07
CGA:  13    -0.416344062477E+03   -0.60762E-07   -0.60824E-07  1792   0.569E-07   0.252E-07
CGA:  14    -0.416344062495E+03   -0.18896E-07   -0.19229E-07  1792   0.148E-07   0.892E-08
CGA:  15    -0.416344062501E+03   -0.57335E-08   -0.66480E-08  1792   0.528E-08  -0.135E-08
  34 F= -.41634406E+03 E0= -.41634406E+03  d E =-.142529E-10  mag=     0.0000
       N       E                     dE             d eps       ncg     rms           ort
SDA:   1    -0.415791627979E+03    0.55243E+00    0.00000E+00  1792   0.124E+01   0.000E+00
CGA:   2    -0.416260666143E+03   -0.46904E+00   -0.46934E+00  1792   0.280E+00  -0.310E-02
CGA:   3    -0.416325192900E+03   -0.64527E-01   -0.64544E-01  1792   0.654E-01   0.108E-03
CGA:   4    -0.416339522936E+03   -0.14330E-01   -0.14334E-01  1792   0.132E-01  -0.568E-05
CGA:   5    -0.416342762097E+03   -0.32392E-02   -0.32399E-02  1792   0.332E-02   0.386E-05
CGA:   6    -0.416343686624E+03   -0.92453E-03   -0.92455E-03  1792   0.990E-03   0.251E-05
CGA:   7    -0.416343924341E+03   -0.23772E-03   -0.23769E-03  1792   0.373E-03  -0.282E-06
CGA:   8    -0.416344004185E+03   -0.79843E-04   -0.79834E-04  1792   0.939E-04  -0.101E-06
CGA:   9    -0.416344029048E+03   -0.24863E-04   -0.24868E-04  1792   0.194E-04   0.184E-06
CGA:  10    -0.416344034124E+03   -0.50766E-05   -0.50794E-05  1792   0.478E-05   0.832E-07
CGA:  11    -0.416344035350E+03   -0.12259E-05   -0.12270E-05  1792   0.104E-05   0.228E-07
CGA:  12    -0.416344035667E+03   -0.31669E-06   -0.31716E-06  1792   0.241E-06  -0.599E-09
CGA:  13    -0.416344035742E+03   -0.75379E-07   -0.75637E-07  1792   0.679E-07   0.761E-08
CGA:  14    -0.416344035764E+03   -0.21821E-07   -0.22171E-07  1792   0.175E-07   0.433E-08
CGA:  15    -0.416344035770E+03   -0.62864E-08   -0.71135E-08  1792   0.532E-08  -0.761E-09
  35 F= -.41634404E+03 E0= -.41634404E+03  d E =-.201851E-10  mag=    -0.0000
       N       E                     dE             d eps       ncg     rms           ort
SDA:   1    -0.416053740338E+03    0.29030E+00    0.00000E+00  1792   0.620E+00   0.000E+00
CGA:   2    -0.416288833411E+03   -0.23509E+00   -0.23523E+00  1792   0.152E+00  -0.199E-02
CGA:   3    -0.416323296020E+03   -0.34463E-01   -0.34506E-01  1792   0.370E-01   0.345E-04
CGA:   4    -0.416331116877E+03   -0.78209E-02   -0.78245E-02  1792   0.710E-02  -0.741E-05
CGA:   5    -0.416332946901E+03   -0.18300E-02   -0.18300E-02  1792   0.173E-02   0.199E-05
CGA:   6    -0.416333431253E+03   -0.48435E-03   -0.48443E-03  1792   0.560E-03   0.247E-05
CGA:   7    -0.416333561660E+03   -0.13041E-03   -0.13039E-03  1792   0.226E-03  -0.167E-06
CGA:   8    -0.416333612666E+03   -0.51006E-04   -0.50970E-04  1792   0.591E-04  -0.431E-06
CGA:   9    -0.416333629053E+03   -0.16387E-04   -0.16385E-04  1792   0.148E-04  -0.134E-06
CGA:  10    -0.416333633020E+03   -0.39674E-05   -0.39657E-05  1792   0.407E-05  -0.817E-07
CGA:  11    -0.416333634123E+03   -0.11032E-05   -0.11023E-05  1792   0.106E-05  -0.681E-07
CGA:  12    -0.416333634460E+03   -0.33717E-06   -0.33996E-06  1792   0.280E-06  -0.622E-07
CGA:  13    -0.416333634551E+03   -0.90702E-07   -0.92690E-07  1792   0.884E-07  -0.259E-07
CGA:  14    -0.416333634576E+03   -0.25044E-07   -0.25642E-07  1792   0.205E-07  -0.342E-08
CGA:  15    -0.416333634582E+03   -0.60609E-08   -0.64410E-08  1792   0.471E-08   0.717E-09
  36 F= -.41633363E+03 E0= -.41633363E+03  d E =-.979381E-11  mag=    -0.0000
       N       E                     dE             d eps       ncg     rms           ort
SDA:   1    -0.415762693244E+03    0.57094E+00    0.00000E+00  1792   0.122E+01   0.000E+00
CGA:   2    -0.416212928450E+03   -0.45024E+00   -0.44964E+00  1792   0.409E+00   0.692E-02
CGA:   3    -0.416306754790E+03   -0.93826E-01   -0.93783E-01  1792   0.867E-01  -0.230E-03
CGA:   4    -0.416325499357E+03   -0.18745E-01   -0.18730E-01  1792   0.211E-01  -0.479E-04
CGA:   5    -0.416330713551E+03   -0.52142E-02   -0.52148E-02  1792   0.511E-02   0.202E-05
CGA:   6    -0.416332301842E+03   -0.15883E-02   -0.15883E-02  1792   0.150E-02  -0.257E-05
CGA:   7    -0.416332702085E+03   -0.40024E-03   -0.40025E-03  1792   0.609E-03   0.270E-06
CGA:   8    -0.416332842664E+03   -0.14058E-03   -0.14066E-03  1792   0.184E-03   0.137E-05
CGA:   9    -0.416332890093E+03   -0.47429E-04   -0.47458E-04  1792   0.489E-04   0.110E-05
CGA:  10    -0.416332903791E+03   -0.13698E-04   -0.13699E-04  1792   0.117E-04   0.586E-06
CGA:  11    -0.416332907099E+03   -0.33085E-05   -0.33092E-05  1792   0.316E-05   0.211E-06
CGA:  12    -0.416332908006E+03   -0.90683E-06   -0.90721E-06  1792   0.735E-06   0.947E-07
CGA:  13    -0.416332908252E+03   -0.24605E-06   -0.24468E-06  1792   0.196E-06   0.447E-07
CGA:  14    -0.416332908321E+03   -0.68947E-07   -0.69452E-07  1792   0.602E-07  -0.329E-09
CGA:  15    -0.416332908345E+03   -0.23771E-07   -0.26529E-07  1792   0.238E-07  -0.140E-07
SDA:  16    -0.416332908346E+03   -0.66939E-09   -0.14464E-07  1792   0.465E-07  -0.259E-07
CGA:  17    -0.416332908357E+03   -0.10798E-07   -0.11338E-07  1792   0.456E-08   0.247E-08
CGA:  18    -0.416332908358E+03   -0.19209E-08   -0.23368E-08  1792   0.166E-08   0.467E-11
  37 F= -.41633291E+03 E0= -.41633291E+03  d E =-.106696E-10  mag=     0.0000
       N       E                     dE             d eps       ncg     rms           ort
SDA:   1    -0.416064393282E+03    0.26852E+00    0.00000E+00  1792   0.609E+00   0.000E+00
CGA:   2    -0.416297041610E+03   -0.23265E+00   -0.23269E+00  1792   0.157E+00  -0.114E-02
CGA:   3    -0.416332886372E+03   -0.35845E-01   -0.35886E-01  1792   0.379E-01  -0.774E-05
CGA:   4    -0.416340960218E+03   -0.80738E-02   -0.80763E-02  1792   0.791E-02  -0.686E-05
CGA:   5    -0.416342960305E+03   -0.20001E-02   -0.20003E-02  1792   0.197E-02   0.428E-05
CGA:   6    -0.416343529439E+03   -0.56913E-03   -0.56927E-03  1792   0.621E-03   0.364E-05
CGA:   7    -0.416343683273E+03   -0.15383E-03   -0.15383E-03  1792   0.255E-03   0.222E-07
CGA:   8    -0.416343740459E+03   -0.57187E-04   -0.57138E-04  1792   0.703E-04  -0.509E-06
CGA:   9    -0.416343759741E+03   -0.19281E-04   -0.19268E-04  1792   0.183E-04  -0.397E-06
CGA:  10    -0.416343764775E+03   -0.50343E-05   -0.50281E-05  1792   0.504E-05  -0.224E-06
CGA:  11    -0.416343766167E+03   -0.13923E-05   -0.13902E-05  1792   0.140E-05  -0.111E-06
CGA:  12    -0.416343766599E+03   -0.43146E-06   -0.43314E-06  1792   0.358E-06  -0.678E-07
CGA:  13    -0.416343766717E+03   -0.11822E-06   -0.12039E-06  1792   0.105E-06  -0.301E-07
CGA:  14    -0.416343766748E+03   -0.30770E-07   -0.31303E-07  1792   0.259E-07  -0.568E-08
CGA:  15    -0.416343766755E+03   -0.73996E-08   -0.79259E-08  1792   0.585E-08   0.688E-09
  38 F= -.41634377E+03 E0= -.41634377E+03  d E =-.964138E-11  mag=    -0.0000
       N       E                     dE             d eps       ncg     rms           ort
SDA:   1    -0.415802634940E+03    0.54113E+00    0.00000E+00  1792   0.121E+01   0.000E+00
CGA:   2    -0.416258857799E+03   -0.45622E+00   -0.45655E+00  1792   0.282E+00  -0.170E-02
CGA:   3    -0.416324460711E+03   -0.65603E-01   -0.65595E-01  1792   0.622E-01  -0.753E-05
CGA:   4    -0.416338898208E+03   -0.14437E-01   -0.14439E-01  1792   0.148E-01  -0.934E-05
CGA:   5    -0.416342299391E+03   -0.34012E-02   -0.34024E-02  1792   0.381E-02   0.522E-05
CGA:   6    -0.416343365513E+03   -0.10661E-02   -0.10661E-02  1792   0.124E-02   0.152E-05
CGA:   7    -0.416343637392E+03   -0.27188E-03   -0.27182E-03  1792   0.452E-03  -0.833E-06
CGA:   8    -0.416343738598E+03   -0.10121E-03   -0.10120E-03  1792   0.104E-03  -0.234E-06
CGA:   9    -0.416343766522E+03   -0.27924E-04   -0.27928E-04  1792   0.247E-04   0.630E-06
CGA:  10    -0.416343772593E+03   -0.60713E-05   -0.60806E-05  1792   0.622E-05   0.299E-06
CGA:  11    -0.416343774287E+03   -0.16941E-05   -0.16950E-05  1792   0.142E-05   0.124E-06
CGA:  12    -0.416343774733E+03   -0.44623E-06   -0.44476E-06  1792   0.378E-06   0.604E-07
CGA:  13    -0.416343774851E+03   -0.11766E-06   -0.11747E-06  1792   0.107E-06   0.327E-07
CGA:  14    -0.416343774886E+03   -0.34946E-07   -0.35169E-07  1792   0.275E-07   0.146E-07
CGA:  15    -0.416343774895E+03   -0.94806E-08   -0.99234E-08  1792   0.730E-08   0.352E-08
  39 F= -.41634377E+03 E0= -.41634377E+03  d E =-.118306E-10  mag=     0.0000
       N       E                     dE             d eps       ncg     rms           ort
SDA:   1    -0.416064642846E+03    0.27913E+00    0.00000E+00  1792   0.614E+00   0.000E+00
CGA:   2    -0.416300260646E+03   -0.23562E+00   -0.23589E+00  1792   0.138E+00  -0.204E-02
CGA:   3    -0.416332496004E+03   -0.32235E-01   -0.32252E-01  1792   0.330E-01   0.757E-04
CGA:   4    -0.416339543667E+03   -0.70477E-02   -0.70492E-02  1792   0.689E-02   0.987E-06
CGA:   5    -0.416341231207E+03   -0.16875E-02   -0.16875E-02  1792   0.166E-02   0.115E-05
CGA:   6    -0.416341692537E+03   -0.46133E-03   -0.46135E-03  1792   0.542E-03   0.183E-05
CGA:   7    -0.416341817345E+03   -0.12481E-03   -0.12483E-03  1792   0.201E-03   0.445E-06
CGA:   8    -0.416341861859E+03   -0.44514E-04   -0.44508E-04  1792   0.524E-04  -0.813E-07
CGA:   9    -0.416341876273E+03   -0.14414E-04   -0.14414E-04  1792   0.126E-04  -0.272E-06
CGA:  10    -0.416341879573E+03   -0.32995E-05   -0.32980E-05  1792   0.335E-05  -0.143E-06
CGA:  11    -0.416341880460E+03   -0.88701E-06   -0.88731E-06  1792   0.829E-06  -0.485E-07
CGA:  12    -0.416341880722E+03   -0.26253E-06   -0.26490E-06  1792   0.215E-06  -0.354E-07
CGA:  13    -0.416341880795E+03   -0.72221E-07   -0.75060E-07  1792   0.725E-07  -0.272E-07
CGA:  14    -0.416341880815E+03   -0.20256E-07   -0.21095E-07  1792   0.189E-07  -0.650E-08
CGA:  15    -0.416341880820E+03   -0.57044E-08   -0.64714E-08  1792   0.494E-08  -0.244E-08
  40 F= -.41634188E+03 E0= -.41634188E+03  d E =-.159094E-10  mag=    -0.0000
       N       E                     dE             d eps       ncg     rms           ort
SDA:   1    -0.415793151602E+03    0.54873E+00    0.00000E+00  1792   0.122E+01   0.000E+00
CGA:   2    -0.416246227822E+03   -0.45308E+00   -0.45314E+00  1792   0.323E+00   0.442E-03
CGA:   3    -0.416320713570E+03   -0.74486E-01   -0.74484E-01  1792   0.668E-01  -0.466E-04
CGA:   4    -0.416336366815E+03   -0.15653E-01   -0.15652E-01  1792   0.171E-01  -0.194E-04
CGA:   5    -0.416340257500E+03   -0.38907E-02   -0.38928E-02  1792   0.429E-02   0.594E-05
CGA:   6    -0.416341471158E+03   -0.12137E-02   -0.12137E-02  1792   0.138E-02   0.113E-05
CGA:   7    -0.416341782717E+03   -0.31156E-03   -0.31150E-03  1792   0.525E-03  -0.925E-06
CGA:   8    -0.416341899516E+03   -0.11680E-03   -0.11680E-03  1792   0.124E-03  -0.159E-07
CGA:   9    -0.416341933587E+03   -0.34071E-04   -0.34079E-04  1792   0.309E-04   0.866E-06
CGA:  10    -0.416341941489E+03   -0.79016E-05   -0.79129E-05  1792   0.823E-05   0.396E-06
CGA:  11    -0.416341943744E+03   -0.22549E-05   -0.22569E-05  1792   0.202E-05   0.162E-06
CGA:  12    -0.416341944374E+03   -0.63081E-06   -0.62908E-06  1792   0.524E-06   0.884E-07
CGA:  13    -0.416341944538E+03   -0.16316E-06   -0.16300E-06  1792   0.142E-06   0.439E-07
CGA:  14    -0.416341944586E+03   -0.48167E-07   -0.48427E-07  1792   0.364E-07   0.103E-07
CGA:  15    -0.416341944600E+03   -0.13912E-07   -0.14739E-07  1792   0.109E-07  -0.303E-08
SDA:  16    -0.416341944600E+03   -0.22555E-09   -0.76018E-08  1792   0.238E-07  -0.135E-07
  41 F= -.41634194E+03 E0= -.41634194E+03  d E =-.802954E-11  mag=    -0.0000
       N       E                     dE             d eps       ncg     rms           ort
SDA:   1    -0.416046523812E+03    0.29542E+00    0.00000E+00  1792   0.625E+00   0.000E+00
CGA:   2    -0.416282886966E+03   -0.23636E+00   -0.23657E+00  1792   0.177E+00  -0.261E-02
CGA:   3    -0.416323937042E+03   -0.41050E-01   -0.41083E-01  1792   0.407E-01   0.555E-04
CGA:   4    -0.416332453039E+03   -0.85160E-02   -0.85187E-02  1792   0.826E-02  -0.624E-05
CGA:   5    -0.416334559610E+03   -0.21066E-02   -0.21065E-02  1792   0.217E-02   0.219E-05
CGA:   6    -0.416335174472E+03   -0.61486E-03   -0.61495E-03  1792   0.698E-03   0.394E-05
CGA:   7    -0.416335344503E+03   -0.17003E-03   -0.17005E-03  1792   0.304E-03   0.359E-06
CGA:   8    -0.416335414214E+03   -0.69711E-04   -0.69664E-04  1792   0.863E-04  -0.646E-06
CGA:   9    -0.416335438375E+03   -0.24161E-04   -0.24153E-04  1792   0.234E-04  -0.700E-06
CGA:  10    -0.416335444577E+03   -0.62018E-05   -0.61959E-05  1792   0.645E-05  -0.250E-06
CGA:  11    -0.416335446297E+03   -0.17203E-05   -0.17186E-05  1792   0.161E-05  -0.110E-06
CGA:  12    -0.416335446797E+03   -0.49941E-06   -0.50292E-06  1792   0.413E-06  -0.958E-07
CGA:  13    -0.416335446931E+03   -0.13481E-06   -0.13855E-06  1792   0.132E-06  -0.494E-07
CGA:  14    -0.416335446970E+03   -0.38839E-07   -0.40165E-07  1792   0.374E-07  -0.160E-07
CGA:  15    -0.416335446982E+03   -0.11634E-07   -0.12802E-07  1792   0.111E-07  -0.513E-08
CGA:  16    -0.416335446984E+03   -0.23647E-08   -0.28099E-08  1792   0.268E-08   0.129E-08
  42 F= -.41633545E+03 E0= -.41633545E+03  d E =-.774859E-11  mag=     0.0000
       N       E                     dE             d eps       ncg     rms           ort
SDA:   1    -0.415771675334E+03    0.56377E+00    0.00000E+00  1792   0.121E+01   0.000E+00
CGA:   2    -0.416220309195E+03   -0.44863E+00   -0.44816E+00  1792   0.395E+00   0.578E-02
CGA:   3    -0.416309200769E+03   -0.88892E-01   -0.88838E-01  1792   0.857E-01  -0.172E-03
CGA:   4    -0.416327781197E+03   -0.18580E-01   -0.18568E-01  1792   0.208E-01  -0.362E-04
CGA:   5    -0.416332873685E+03   -0.50925E-02   -0.50937E-02  1792   0.496E-02   0.607E-05
CGA:   6    -0.416334352909E+03   -0.14792E-02   -0.14792E-02  1792   0.159E-02  -0.240E-05
CGA:   7    -0.416334733048E+03   -0.38014E-03   -0.38013E-03  1792   0.626E-03  -0.272E-06
CGA:   8    -0.416334877827E+03   -0.14478E-03   -0.14485E-03  1792   0.173E-03   0.127E-05
CGA:   9    -0.416334924010E+03   -0.46182E-04   -0.46199E-04  1792   0.457E-04   0.119E-05
CGA:  10    -0.416334936621E+03   -0.12611E-04   -0.12614E-04  1792   0.117E-04   0.439E-06
CGA:  11    -0.416334939834E+03   -0.32129E-05   -0.32146E-05  1792   0.306E-05   0.166E-06
CGA:  12    -0.416334940716E+03   -0.88265E-06   -0.88237E-06  1792   0.687E-06   0.117E-06
CGA:  13    -0.416334940941E+03   -0.22507E-06   -0.22379E-06  1792   0.182E-06   0.501E-07
CGA:  14    -0.416334941005E+03   -0.64116E-07   -0.64849E-07  1792   0.542E-07  -0.198E-08
CGA:  15    -0.416334941026E+03   -0.20278E-07   -0.22219E-07  1792   0.183E-07  -0.973E-08
CGA:  16    -0.416334941034E+03   -0.80472E-08   -0.86251E-08  1792   0.595E-08  -0.371E-08
  43 F= -.41633494E+03 E0= -.41633494E+03  d E =-.175818E-10  mag=    -0.0000
       N       E                     dE             d eps       ncg     rms           ort
SDA:   1    -0.416059636721E+03    0.27530E+00    0.00000E+00  1792   0.614E+00   0.000E+00
CGA:   2    -0.416295084921E+03   -0.23545E+00   -0.23552E+00  1792   0.157E+00  -0.632E-03
CGA:   3    -0.416331185234E+03   -0.36100E-01   -0.36114E-01  1792   0.366E-01   0.185E-04
CGA:   4    -0.416339061032E+03   -0.78758E-02   -0.78766E-02  1792   0.781E-02  -0.710E-05
CGA:   5    -0.416341036938E+03   -0.19759E-02   -0.19761E-02  1792   0.202E-02   0.229E-05
CGA:   6    -0.416341587475E+03   -0.55054E-03   -0.55063E-03  1792   0.662E-03   0.316E-05
CGA:   7    -0.416341740951E+03   -0.15348E-03   -0.15347E-03  1792   0.269E-03  -0.813E-07
CGA:   8    -0.416341802974E+03   -0.62023E-04   -0.62006E-04  1792   0.685E-04  -0.262E-06
CGA:   9    -0.416341822046E+03   -0.19072E-04   -0.19072E-04  1792   0.186E-04  -0.544E-07
CGA:  10    -0.416341826940E+03   -0.48935E-05   -0.48927E-05  1792   0.516E-05  -0.435E-07
CGA:  11    -0.416341828361E+03   -0.14215E-05   -0.14215E-05  1792   0.135E-05  -0.429E-07
CGA:  12    -0.416341828792E+03   -0.43098E-06   -0.43383E-06  1792   0.359E-06  -0.581E-07
CGA:  13    -0.416341828905E+03   -0.11284E-06   -0.11428E-06  1792   0.105E-06  -0.195E-07
CGA:  14    -0.416341828936E+03   -0.31527E-07   -0.32412E-07  1792   0.252E-07  -0.590E-08
CGA:  15    -0.416341828945E+03   -0.85056E-08   -0.99288E-08  1792   0.868E-08  -0.559E-08
  44 F= -.41634183E+03 E0= -.41634183E+03  d E =-.220420E-10  mag=    -0.0000
       N       E                     dE             d eps       ncg     rms           ort
SDA:   1    -0.415770355147E+03    0.57147E+00    0.00000E+00  1792   0.127E+01   0.000E+00
CGA:   2    -0.416260429745E+03   -0.49007E+00   -0.49071E+00  1792   0.258E+00  -0.508E-02
CGA:   3    -0.416325928728E+03   -0.65499E-01   -0.65517E-01  1792   0.532E-01   0.109E-03
CGA:   4    -0.416337988805E+03   -0.12060E-01   -0.12069E-01  1792   0.107E-01   0.132E-04
CGA:   5    -0.416340754556E+03   -0.27658E-02   -0.27659E-02  1792   0.316E-02   0.386E-05
CGA:   6    -0.416341430023E+03   -0.67547E-03   -0.67539E-03  1792   0.130E-02   0.139E-05
CGA:   7    -0.416341713132E+03   -0.28311E-03   -0.28310E-03  1792   0.358E-03   0.368E-06
CGA:   8    -0.416341809186E+03   -0.96055E-04   -0.96051E-04  1792   0.995E-04  -0.241E-06
CGA:   9    -0.416341833943E+03   -0.24756E-04   -0.24755E-04  1792   0.280E-04  -0.437E-07
CGA:  10    -0.416341840790E+03   -0.68476E-05   -0.68496E-05  1792   0.613E-05   0.402E-07
CGA:  11    -0.416341842577E+03   -0.17861E-05   -0.17868E-05  1792   0.155E-05  -0.182E-07
CGA:  12    -0.416341843041E+03   -0.46490E-06   -0.46566E-06  1792   0.432E-06  -0.127E-07
CGA:  13    -0.416341843179E+03   -0.13770E-06   -0.13911E-06  1792   0.128E-06  -0.186E-07
CGA:  14    -0.416341843223E+03   -0.44070E-07   -0.46764E-07  1792   0.424E-07  -0.210E-07
CGA:  15    -0.416341843234E+03   -0.11241E-07   -0.11853E-07  1792   0.102E-07  -0.287E-08
CGA:  16    -0.416341843237E+03   -0.27285E-08   -0.31837E-08  1792   0.248E-08   0.153E-09
  45 F= -.41634184E+03 E0= -.41634184E+03  d E =-.226982E-10  mag=     0.0000
       N       E                     dE             d eps       ncg     rms           ort
SDA:   1    -0.416064598591E+03    0.27724E+00    0.00000E+00  1792   0.620E+00   0.000E+00
CGA:   2    -0.416302340888E+03   -0.23774E+00   -0.23773E+00  1792   0.129E+00   0.558E-03
CGA:   3    -0.416335153465E+03   -0.32813E-01   -0.32786E-01  1792   0.277E-01  -0.339E-04
CGA:   4    -0.416341590880E+03   -0.64374E-02   -0.64413E-02  1792   0.562E-02  -0.341E-05
CGA:   5    -0.416343048481E+03   -0.14576E-02   -0.14579E-02  1792   0.173E-02   0.272E-06
CGA:   6    -0.416343432529E+03   -0.38405E-03   -0.38406E-03  1792   0.684E-03   0.586E-06
CGA:   7    -0.416343575605E+03   -0.14308E-03   -0.14310E-03  1792   0.193E-03   0.148E-06
CGA:   8    -0.416343626239E+03   -0.50634E-04   -0.50651E-04  1792   0.471E-04   0.315E-06
CGA:   9    -0.416343637972E+03   -0.11734E-04   -0.11751E-04  1792   0.134E-04   0.310E-06
CGA:  10    -0.416343641163E+03   -0.31904E-05   -0.31979E-05  1792   0.286E-05   0.114E-06
CGA:  11    -0.416343641990E+03   -0.82680E-06   -0.82752E-06  1792   0.703E-06   0.433E-07
CGA:  12    -0.416343642193E+03   -0.20353E-06   -0.20441E-06  1792   0.190E-06   0.421E-07
CGA:  13    -0.416343642250E+03   -0.57349E-07   -0.57861E-07  1792   0.538E-07   0.215E-07
CGA:  14    -0.416343642268E+03   -0.18030E-07   -0.18416E-07  1792   0.150E-07   0.725E-08
CGA:  15    -0.416343642273E+03   -0.49840E-08   -0.54164E-08  1792   0.392E-08   0.136E-08
  46 F= -.41634364E+03 E0= -.41634364E+03  d E =-.100829E-10  mag=     0.0000
       N       E                     dE             d eps       ncg     rms           ort
SDA:   1    -0.415753327259E+03    0.59032E+00    0.00000E+00  1792   0.134E+01   0.000E+00
CGA:   2    -0.416259094964E+03   -0.50577E+00   -0.50591E+00  1792   0.273E+00  -0.835E-03
CGA:   3    -0.416326994471E+03   -0.67900E-01   -0.67867E-01  1792   0.551E-01  -0.579E-04
CGA:   4    -0.416340126669E+03   -0.13132E-01   -0.13141E-01  1792   0.999E-02   0.569E-05
CGA:   5    -0.416342604772E+03   -0.24781E-02   -0.24786E-02  1792   0.311E-02   0.324E-05
CGA:   6    -0.416343267631E+03   -0.66286E-03   -0.66285E-03  1792   0.123E-02   0.148E-05
CGA:   7    -0.416343535431E+03   -0.26780E-03   -0.26777E-03  1792   0.361E-03  -0.247E-06
CGA:   8    -0.416343631311E+03   -0.95880E-04   -0.95878E-04  1792   0.940E-04  -0.149E-06
CGA:   9    -0.416343654071E+03   -0.22760E-04   -0.22780E-04  1792   0.271E-04   0.388E-06
CGA:  10    -0.416343660730E+03   -0.66588E-05   -0.66673E-05  1792   0.541E-05   0.185E-06
CGA:  11    -0.416343662243E+03   -0.15131E-05   -0.15136E-05  1792   0.125E-05   0.162E-07
CGA:  12    -0.416343662595E+03   -0.35239E-06   -0.35305E-06  1792   0.305E-06   0.331E-07
CGA:  13    -0.416343662685E+03   -0.89407E-07   -0.89828E-07  1792   0.814E-07   0.173E-07
CGA:  14    -0.416343662714E+03   -0.29308E-07   -0.29704E-07  1792   0.250E-07   0.182E-08
CGA:  15    -0.416343662722E+03   -0.77052E-08   -0.82365E-08  1792   0.669E-08   0.178E-08
  47 F= -.41634366E+03 E0= -.41634366E+03  d E =-.186678E-10  mag=    -0.0000
       N       E                     dE             d eps       ncg     rms           ort
SDA:   1    -0.416052980376E+03    0.29068E+00    0.00000E+00  1792   0.637E+00   0.000E+00
CGA:   2    -0.416296647675E+03   -0.24367E+00   -0.24392E+00  1792   0.136E+00  -0.194E-02
CGA:   3    -0.416330855916E+03   -0.34208E-01   -0.34226E-01  1792   0.274E-01   0.107E-03
CGA:   4    -0.416337060260E+03   -0.62043E-02   -0.62058E-02  1792   0.557E-02   0.680E-06
CGA:   5    -0.416338517922E+03   -0.14577E-02   -0.14577E-02  1792   0.141E-02   0.236E-05
CGA:   6    -0.416338849720E+03   -0.33180E-03   -0.33185E-03  1792   0.638E-03   0.116E-05
CGA:   7    -0.416338980907E+03   -0.13119E-03   -0.13115E-03  1792   0.178E-03  -0.324E-06
CGA:   8    -0.416339028796E+03   -0.47890E-04   -0.47885E-04  1792   0.470E-04  -0.511E-06
CGA:   9    -0.416339040285E+03   -0.11488E-04   -0.11494E-04  1792   0.136E-04   0.146E-06
CGA:  10    -0.416339043624E+03   -0.33394E-05   -0.33425E-05  1792   0.289E-05   0.863E-07
CGA:  11    -0.416339044478E+03   -0.85363E-06   -0.85563E-06  1792   0.733E-06  -0.680E-07
CGA:  12    -0.416339044695E+03   -0.21678E-06   -0.21849E-06  1792   0.207E-06  -0.370E-07
CGA:  13    -0.416339044755E+03   -0.60609E-07   -0.61455E-07  1792   0.552E-07  -0.673E-08
CGA:  14    -0.416339044774E+03   -0.18677E-07   -0.20057E-07  1792   0.169E-07  -0.701E-08
CGA:  15    -0.416339044779E+03   -0.46275E-08   -0.54391E-08  1792   0.489E-08  -0.278E-08
  48 F= -.41633904E+03 E0= -.41633904E+03  d E =-.153786E-10  mag=     0.0000
       N       E                     dE             d eps       ncg     rms           ort
SDA:   1    -0.415775947050E+03    0.56310E+00    0.00000E+00  1792   0.123E+01   0.000E+00
CGA:   2    -0.416237157542E+03   -0.46121E+00   -0.46075E+00  1792   0.335E+00   0.548E-02
CGA:   3    -0.416318541636E+03   -0.81384E-01   -0.81239E-01  1792   0.630E-01  -0.492E-03
CGA:   4    -0.416333561726E+03   -0.15020E-01   -0.15022E-01  1792   0.146E-01   0.332E-05
CGA:   5    -0.416337285759E+03   -0.37240E-02   -0.37252E-02  1792   0.394E-02   0.685E-05
CGA:   6    -0.416338263444E+03   -0.97769E-03   -0.97768E-03  1792   0.155E-02  -0.225E-06
CGA:   7    -0.416338580331E+03   -0.31689E-03   -0.31701E-03  1792   0.520E-03   0.119E-05
CGA:   8    -0.416338716430E+03   -0.13610E-03   -0.13614E-03  1792   0.124E-03   0.185E-05
CGA:   9    -0.416338750122E+03   -0.33692E-04   -0.33698E-04  1792   0.404E-04   0.458E-06
CGA:  10    -0.416338759972E+03   -0.98502E-05   -0.98551E-05  1792   0.953E-05   0.119E-06
CGA:  11    -0.416338762692E+03   -0.27201E-05   -0.27193E-05  1792   0.226E-05   0.167E-06
CGA:  12    -0.416338763359E+03   -0.66632E-06   -0.66535E-06  1792   0.603E-06   0.127E-06
CGA:  13    -0.416338763544E+03   -0.18501E-06   -0.18507E-06  1792   0.163E-06   0.338E-07
CGA:  14    -0.416338763602E+03   -0.58746E-07   -0.59550E-07  1792   0.444E-07  -0.814E-09
CGA:  15    -0.416338763617E+03   -0.14283E-07   -0.14772E-07  1792   0.115E-07  -0.918E-09
SDA:  16    -0.416338763619E+03   -0.21901E-08   -0.79947E-08  1792   0.193E-07  -0.121E-07
  49 F= -.41633876E+03 E0= -.41633876E+03  d E =-.151772E-10  mag=    -0.0000
       N       E                     dE             d eps       ncg     rms           ort
SDA:   1    -0.416066318315E+03    0.27245E+00    0.00000E+00  1792   0.612E+00   0.000E+00
CGA:   2    -0.416301044486E+03   -0.23473E+00   -0.23482E+00  1792   0.142E+00  -0.878E-03
CGA:   3    -0.416334806066E+03   -0.33762E-01   -0.33790E-01  1792   0.307E-01   0.413E-04
CGA:   4    -0.416341555421E+03   -0.67494E-02   -0.67497E-02  1792   0.686E-02  -0.581E-05
CGA:   5    -0.416343248266E+03   -0.16928E-02   -0.16930E-02  1792   0.176E-02   0.236E-05
CGA:   6    -0.416343697982E+03   -0.44972E-03   -0.44981E-03  1792   0.616E-03   0.222E-05
CGA:   7    -0.416343836028E+03   -0.13805E-03   -0.13799E-03  1792   0.224E-03  -0.689E-06
[...]
  90 F= -.41633514E+03 E0= -.41633514E+03  d E =-.996499E-11  mag=     0.0000
       N       E                     dE             d eps       ncg     rms           ort
SDA:   1    -0.416125626312E+03    0.20951E+00    0.00000E+00  1792   0.421E+00   0.000E+00
CGA:   2    -0.416290389222E+03   -0.16476E+00   -0.16530E+00  1792   0.172E+00  -0.385E-02
CGA:   3    -0.416328071058E+03   -0.37682E-01   -0.37724E-01  1792   0.233E-01   0.360E-04
CGA:   4    -0.416333711760E+03   -0.56407E-02   -0.56414E-02  1792   0.699E-02   0.122E-04
CGA:   5    -0.416335070428E+03   -0.13587E-02   -0.13587E-02  1792   0.166E-02   0.176E-05
CGA:   6    -0.416335442146E+03   -0.37172E-03   -0.37160E-03  1792   0.644E-03  -0.215E-05
CGA:   7    -0.416335579358E+03   -0.13721E-03   -0.13722E-03  1792   0.190E-03   0.476E-08
CGA:   8    -0.416335632226E+03   -0.52868E-04   -0.52859E-04  1792   0.583E-04   0.124E-05
CGA:   9    -0.416335647048E+03   -0.14822E-04   -0.14822E-04  1792   0.191E-04  -0.460E-07
CGA:  10    -0.416335652132E+03   -0.50840E-05   -0.50835E-05  1792   0.469E-05  -0.353E-06
CGA:  11    -0.416335653491E+03   -0.13590E-05   -0.13618E-05  1792   0.118E-05  -0.874E-07
CGA:  12    -0.416335653840E+03   -0.34921E-06   -0.35010E-06  1792   0.322E-06  -0.169E-07
CGA:  13    -0.416335653947E+03   -0.10746E-06   -0.11093E-06  1792   0.103E-06  -0.397E-07
SDA:  14    -0.416335653981E+03   -0.33368E-07   -0.41433E-07  1792   0.525E-07  -0.392E-07
CGA:  15    -0.416335653994E+03   -0.13759E-07   -0.13948E-07  1792   0.693E-08  -0.194E-08
CGA:  16    -0.416335653998E+03   -0.33615E-08   -0.38914E-08  1792   0.164E-08  -0.294E-09
  91 F= -.41633565E+03 E0= -.41633565E+03  d E =-.179645E-10  mag=     0.0000
       N       E                     dE             d eps       ncg     rms           ort
SDA:   1    -0.416241769509E+03    0.93884E-01    0.00000E+00  1792   0.193E+00   0.000E+00
CGA:   2    -0.416323480521E+03   -0.81711E-01   -0.81708E-01  1792   0.632E-01  -0.490E-05
CGA:   3    -0.416337469589E+03   -0.13989E-01   -0.13991E-01  1792   0.107E-01  -0.101E-05
CGA:   4    -0.416340053387E+03   -0.25838E-02   -0.25837E-02  1792   0.292E-02  -0.733E-06
CGA:   5    -0.416340600524E+03   -0.54714E-03   -0.54735E-03  1792   0.759E-03   0.200E-05
CGA:   6    -0.416340763420E+03   -0.16290E-03   -0.16306E-03  1792   0.269E-03   0.171E-05
CGA:   7    -0.416340820468E+03   -0.57048E-04   -0.57060E-04  1792   0.705E-04   0.131E-06
CGA:   8    -0.416340839807E+03   -0.19339E-04   -0.19334E-04  1792   0.221E-04  -0.216E-06
CGA:   9    -0.416340845084E+03   -0.52769E-05   -0.52928E-05  1792   0.650E-05   0.294E-06
CGA:  10    -0.416340846746E+03   -0.16624E-05   -0.16721E-05  1792   0.153E-05   0.277E-06
CGA:  11    -0.416340847210E+03   -0.46390E-06   -0.46398E-06  1792   0.411E-06   0.603E-07
CGA:  12    -0.416340847339E+03   -0.12847E-06   -0.12913E-06  1792   0.128E-06  -0.976E-08
CGA:  13    -0.416340847376E+03   -0.37231E-07   -0.37786E-07  1792   0.311E-07   0.170E-08
CGA:  14    -0.416340847384E+03   -0.84110E-08   -0.88403E-08  1792   0.780E-08   0.463E-08
  92 F= -.41634085E+03 E0= -.41634085E+03  d E =-.111197E-10  mag=     0.0000
       N       E                     dE             d eps       ncg     rms           ort
SDA:   1    -0.416152168310E+03    0.18868E+00    0.00000E+00  1792   0.360E+00   0.000E+00
CGA:   2    -0.416310539941E+03   -0.15837E+00   -0.15849E+00  1792   0.982E-01  -0.674E-03
CGA:   3    -0.416334443438E+03   -0.23903E-01   -0.23880E-01  1792   0.213E-01  -0.655E-04
CGA:   4    -0.416339337651E+03   -0.48942E-02   -0.48948E-02  1792   0.517E-02  -0.382E-06
CGA:   5    -0.416340335628E+03   -0.99798E-03   -0.99800E-03  1792   0.175E-02  -0.464E-06
CGA:   6    -0.416340690777E+03   -0.35515E-03   -0.35523E-03  1792   0.517E-03   0.105E-05
CGA:   7    -0.416340809500E+03   -0.11872E-03   -0.11880E-03  1792   0.139E-03   0.175E-05
CGA:   8    -0.416340845866E+03   -0.36366E-04   -0.36375E-04  1792   0.449E-04   0.808E-06
CGA:   9    -0.416340856500E+03   -0.10633E-04   -0.10637E-04  1792   0.126E-04   0.980E-07
CGA:  10    -0.416340859991E+03   -0.34910E-05   -0.34908E-05  1792   0.314E-05   0.610E-07
CGA:  11    -0.416340860898E+03   -0.90722E-06   -0.90596E-06  1792   0.884E-06   0.939E-07
CGA:  12    -0.416340861153E+03   -0.25500E-06   -0.25485E-06  1792   0.243E-06   0.608E-07
CGA:  13    -0.416340861227E+03   -0.74564E-07   -0.74616E-07  1792   0.606E-07   0.257E-07
CGA:  14    -0.416340861248E+03   -0.20576E-07   -0.20759E-07  1792   0.173E-07   0.599E-08
CGA:  15    -0.416340861253E+03   -0.48676E-08   -0.55362E-08  1792   0.433E-08   0.259E-08
  93 F= -.41634086E+03 E0= -.41634086E+03  d E =-.110447E-10  mag=    -0.0000
       N       E                     dE             d eps       ncg     rms           ort
SDA:   1    -0.416253866031E+03    0.86995E-01    0.00000E+00  1792   0.173E+00   0.000E+00
CGA:   2    -0.416326451561E+03   -0.72586E-01   -0.72705E-01  1792   0.539E-01  -0.638E-03
CGA:   3    -0.416338813038E+03   -0.12361E-01   -0.12370E-01  1792   0.999E-02   0.266E-04
CGA:   4    -0.416341331417E+03   -0.25184E-02   -0.25185E-02  1792   0.248E-02   0.601E-05
CGA:   5    -0.416341792084E+03   -0.46067E-03   -0.46066E-03  1792   0.821E-03   0.242E-06
CGA:   6    -0.416341961438E+03   -0.16935E-03   -0.16929E-03  1792   0.247E-03  -0.821E-06
CGA:   7    -0.416342018281E+03   -0.56844E-04   -0.56847E-04  1792   0.652E-04   0.836E-07
CGA:   8    -0.416342035249E+03   -0.16968E-04   -0.16971E-04  1792   0.232E-04   0.511E-06
CGA:   9    -0.416342040808E+03   -0.55584E-05   -0.55626E-05  1792   0.642E-05   0.136E-06
CGA:  10    -0.416342042725E+03   -0.19171E-05   -0.19219E-05  1792   0.187E-05  -0.119E-06
CGA:  11    -0.416342043272E+03   -0.54728E-06   -0.54962E-06  1792   0.559E-06  -0.562E-07
CGA:  12    -0.416342043439E+03   -0.16696E-06   -0.16899E-06  1792   0.166E-06  -0.352E-07
CGA:  13    -0.416342043493E+03   -0.53493E-07   -0.58028E-07  1792   0.605E-07  -0.394E-07
CGA:  14    -0.416342043508E+03   -0.15723E-07   -0.17648E-07  1792   0.192E-07  -0.122E-07
CGA:  15    -0.416342043513E+03   -0.49113E-08   -0.55933E-08  1792   0.592E-08  -0.182E-08
  94 F= -.41634204E+03 E0= -.41634204E+03  d E =-.994245E-11  mag=    -0.0000
       N       E                     dE             d eps       ncg     rms           ort
SDA:   1    -0.416141719784E+03    0.20032E+00    0.00000E+00  1792   0.395E+00   0.000E+00
CGA:   2    -0.416313270441E+03   -0.17155E+00   -0.17193E+00  1792   0.941E-01  -0.251E-02
CGA:   3    -0.416336578342E+03   -0.23308E-01   -0.23312E-01  1792   0.179E-01  -0.230E-04
CGA:   4    -0.416340645602E+03   -0.40673E-02   -0.40671E-02  1792   0.476E-02  -0.219E-06
CGA:   5    -0.416341585973E+03   -0.94037E-03   -0.94062E-03  1792   0.158E-02   0.455E-05
CGA:   6    -0.416341902143E+03   -0.31617E-03   -0.31643E-03  1792   0.553E-03   0.302E-05
CGA:   7    -0.416342041029E+03   -0.13889E-03   -0.13891E-03  1792   0.161E-03   0.625E-06
CGA:   8    -0.416342082438E+03   -0.41409E-04   -0.41407E-04  1792   0.581E-04  -0.104E-06
CGA:   9    -0.416342096232E+03   -0.13794E-04   -0.13810E-04  1792   0.146E-04   0.375E-06
CGA:  10    -0.416342100075E+03   -0.38422E-05   -0.38470E-05  1792   0.353E-05   0.295E-06
CGA:  11    -0.416342101072E+03   -0.99709E-06   -0.99741E-06  1792   0.930E-06   0.232E-07
CGA:  12    -0.416342101348E+03   -0.27624E-06   -0.27674E-06  1792   0.268E-06  -0.558E-08
CGA:  13    -0.416342101428E+03   -0.80632E-07   -0.81229E-07  1792   0.699E-07  -0.161E-08
SDA:  14    -0.416342101455E+03   -0.26252E-07   -0.31178E-07  1792   0.374E-07  -0.250E-07
CGA:  15    -0.416342101464E+03   -0.91313E-08   -0.95715E-08  1792   0.466E-08  -0.104E-08
  95 F= -.41634210E+03 E0= -.41634210E+03  d E =-.203494E-10  mag=    -0.0000
       N       E                     dE             d eps       ncg     rms           ort
SDA:   1    -0.416241781317E+03    0.10032E+00    0.00000E+00  1792   0.187E+00   0.000E+00
CGA:   2    -0.416324169164E+03   -0.82388E-01   -0.82376E-01  1792   0.470E-01   0.493E-04
CGA:   3    -0.416335857492E+03   -0.11688E-01   -0.11680E-01  1792   0.101E-01  -0.128E-04
CGA:   4    -0.416338194615E+03   -0.23371E-02   -0.23372E-02  1792   0.224E-02  -0.211E-05
CGA:   5    -0.416338645606E+03   -0.45099E-03   -0.45095E-03  1792   0.783E-03  -0.503E-06
CGA:   6    -0.416338800755E+03   -0.15515E-03   -0.15523E-03  1792   0.236E-03   0.769E-06
CGA:   7    -0.416338854029E+03   -0.53274E-04   -0.53321E-04  1792   0.655E-04   0.769E-06
CGA:   8    -0.416338871411E+03   -0.17382E-04   -0.17389E-04  1792   0.204E-04   0.321E-06
CGA:   9    -0.416338876210E+03   -0.47992E-05   -0.48065E-05  1792   0.593E-05   0.149E-06
CGA:  10    -0.416338877851E+03   -0.16408E-05   -0.16412E-05  1792   0.148E-05   0.792E-07
CGA:  11    -0.416338878292E+03   -0.44120E-06   -0.44183E-06  1792   0.429E-06  -0.438E-08
CGA:  12    -0.416338878419E+03   -0.12713E-06   -0.12749E-06  1792   0.126E-06  -0.207E-08
CGA:  13    -0.416338878454E+03   -0.34961E-07   -0.35411E-07  1792   0.293E-07   0.871E-08
CGA:  14    -0.416338878463E+03   -0.86729E-08   -0.90987E-08  1792   0.780E-08   0.406E-08
  96 F= -.41633888E+03 E0= -.41633888E+03  d E =-.183027E-10  mag=    -0.0000
       N       E                     dE             d eps       ncg     rms           ort
SDA:   1    -0.416140392537E+03    0.19849E+00    0.00000E+00  1792   0.403E+00   0.000E+00
CGA:   2    -0.416296882082E+03   -0.15649E+00   -0.15688E+00  1792   0.155E+00  -0.269E-02
CGA:   3    -0.416331639784E+03   -0.34758E-01   -0.34794E-01  1792   0.218E-01   0.134E-03
CGA:   4    -0.416337280488E+03   -0.56407E-02   -0.56407E-02  1792   0.645E-02   0.936E-05
CGA:   5    -0.416338456073E+03   -0.11756E-02   -0.11757E-02  1792   0.206E-02   0.181E-05
CGA:   6    -0.416338872740E+03   -0.41667E-03   -0.41657E-03  1792   0.627E-03  -0.130E-05
CGA:   7    -0.416339024005E+03   -0.15127E-03   -0.15127E-03  1792   0.180E-03   0.577E-07
CGA:   8    -0.416339070330E+03   -0.46325E-04   -0.46331E-04  1792   0.665E-04   0.819E-06
CGA:   9    -0.416339086177E+03   -0.15847E-04   -0.15849E-04  1792   0.170E-04   0.751E-07
CGA:  10    -0.416339091087E+03   -0.49100E-05   -0.49201E-05  1792   0.467E-05  -0.328E-06
CGA:  11    -0.416339092390E+03   -0.13030E-05   -0.13049E-05  1792   0.128E-05  -0.743E-07
CGA:  12    -0.416339092757E+03   -0.36726E-06   -0.36818E-06  1792   0.348E-06  -0.727E-08
CGA:  13    -0.416339092877E+03   -0.12000E-06   -0.12572E-06  1792   0.123E-06  -0.554E-07
SDA:  14    -0.416339092914E+03   -0.37115E-07   -0.50177E-07  1792   0.742E-07  -0.592E-07
CGA:  15    -0.416339092930E+03   -0.16014E-07   -0.16927E-07  1792   0.825E-08   0.667E-08
SDA:  16    -0.416339092932E+03   -0.22337E-08   -0.27567E-08  1792   0.207E-08   0.230E-08
  97 F= -.41633909E+03 E0= -.41633909E+03  d E =-.162380E-10  mag=     0.0000
       N       E                     dE             d eps       ncg     rms           ort
SDA:   1    -0.416256094357E+03    0.82999E-01    0.00000E+00  1792   0.171E+00   0.000E+00
CGA:   2    -0.416328767605E+03   -0.72673E-01   -0.72696E-01  1792   0.528E-01  -0.129E-03
CGA:   3    -0.416340666333E+03   -0.11899E-01   -0.11895E-01  1792   0.919E-02  -0.556E-05
CGA:   4    -0.416342977652E+03   -0.23113E-02   -0.23113E-02  1792   0.250E-02  -0.143E-05
CGA:   5    -0.416343452342E+03   -0.47469E-03   -0.47473E-03  1792   0.703E-03   0.743E-06
CGA:   6    -0.416343599634E+03   -0.14729E-03   -0.14739E-03  1792   0.234E-03   0.130E-05
CGA:   7    -0.416343650008E+03   -0.50375E-04   -0.50398E-04  1792   0.606E-04   0.360E-06
CGA:   8    -0.416343666024E+03   -0.16016E-04   -0.16016E-04  1792   0.192E-04  -0.417E-07
CGA:   9    -0.416343670737E+03   -0.47129E-05   -0.47186E-05  1792   0.563E-05   0.189E-06
CGA:  10    -0.416343672211E+03   -0.14740E-05   -0.14767E-05  1792   0.147E-05   0.197E-06
CGA:  11    -0.416343672654E+03   -0.44301E-06   -0.44208E-06  1792   0.400E-06   0.719E-07
CGA:  12    -0.416343672776E+03   -0.12133E-06   -0.12134E-06  1792   0.119E-06   0.236E-07
CGA:  13    -0.416343672808E+03   -0.32829E-07   -0.33424E-07  1792   0.286E-07   0.196E-07
SDA:  14    -0.416343672815E+03   -0.68831E-08   -0.78119E-08  1792   0.854E-08   0.103E-07
  98 F= -.41634367E+03 E0= -.41634367E+03  d E =-.170636E-10  mag=     0.0000
       N       E                     dE             d eps       ncg     rms           ort
SDA:   1    -0.416190076799E+03    0.15360E+00    0.00000E+00  1792   0.293E+00   0.000E+00
CGA:   2    -0.416321917753E+03   -0.13184E+00   -0.13228E+00  1792   0.666E-01  -0.198E-02
CGA:   3    -0.416339025865E+03   -0.17108E-01   -0.17113E-01  1792   0.169E-01   0.278E-04
CGA:   4    -0.416342468551E+03   -0.34427E-02   -0.34413E-02  1792   0.415E-02   0.180E-06
CGA:   5    -0.416343408829E+03   -0.94028E-03   -0.94018E-03  1792   0.955E-03   0.738E-06
CGA:   6    -0.416343647067E+03   -0.23824E-03   -0.23822E-03  1792   0.273E-03  -0.586E-06
CGA:   7    -0.416343706265E+03   -0.59199E-04   -0.59236E-04  1792   0.846E-04   0.701E-06
CGA:   8    -0.416343725256E+03   -0.18991E-04   -0.19012E-04  1792   0.227E-04   0.488E-06
CGA:   9    -0.416343731533E+03   -0.62767E-05   -0.62762E-05  1792   0.614E-05   0.893E-07
CGA:  10    -0.416343733222E+03   -0.16892E-05   -0.16892E-05  1792   0.179E-05   0.438E-07
CGA:  11    -0.416343733715E+03   -0.49268E-06   -0.49264E-06  1792   0.453E-06   0.469E-07
CGA:  12    -0.416343733855E+03   -0.13998E-06   -0.14014E-06  1792   0.115E-06   0.164E-07
CGA:  13    -0.416343733892E+03   -0.37384E-07   -0.38009E-07  1792   0.306E-07  -0.131E-09
CGA:  14    -0.416343733902E+03   -0.96261E-08   -0.10446E-07  1792   0.867E-08  -0.127E-08
  99 F= -.41634373E+03 E0= -.41634373E+03  d E =-.792061E-11  mag=    -0.0000
       N       E                     dE             d eps       ncg     rms           ort
SDA:   1    -0.416265010922E+03    0.78723E-01    0.00000E+00  1792   0.147E+00   0.000E+00
CGA:   2    -0.416331279165E+03   -0.66268E-01   -0.66329E-01  1792   0.322E-01  -0.365E-03
CGA:   3    -0.416339700549E+03   -0.84214E-02   -0.84229E-02  1792   0.830E-02  -0.148E-05
CGA:   4    -0.416341339237E+03   -0.16387E-02   -0.16384E-02  1792   0.204E-02   0.221E-05
CGA:   5    -0.416341804787E+03   -0.46555E-03   -0.46553E-03  1792   0.455E-03   0.459E-06
CGA:   6    -0.416341911568E+03   -0.10678E-03   -0.10677E-03  1792   0.142E-03  -0.584E-07
CGA:   7    -0.416341939782E+03   -0.28214E-04   -0.28249E-04  1792   0.412E-04   0.328E-06
CGA:   8    -0.416341949002E+03   -0.92200E-05   -0.92404E-05  1792   0.105E-04   0.260E-06
CGA:   9    -0.416341951836E+03   -0.28343E-05   -0.28361E-05  1792   0.283E-05   0.596E-07
CGA:  10    -0.416341952607E+03   -0.77030E-06   -0.77113E-06  1792   0.830E-06   0.163E-07
CGA:  11    -0.416341952836E+03   -0.22923E-06   -0.22985E-06  1792   0.211E-06   0.175E-07
CGA:  12    -0.416341952899E+03   -0.63614E-07   -0.64112E-07  1792   0.543E-07   0.963E-08
CGA:  13    -0.416341952916E+03   -0.17026E-07   -0.17530E-07  1792   0.149E-07   0.661E-09
CGA:  14    -0.416341952921E+03   -0.47585E-08   -0.59278E-08  1792   0.555E-08  -0.293E-08
 100 F= -.41634195E+03 E0= -.41634195E+03  d E =-.219952E-10  mag=     0.0000
       N       E                     dE             d eps       ncg     rms           ort
SDA:   1    -0.416171721311E+03    0.17023E+00    0.00000E+00  1792   0.335E+00   0.000E+00
CGA:   2    -0.416311853405E+03   -0.14013E+00   -0.14076E+00  1792   0.108E+00  -0.378E-02
CGA:   3    -0.416336041541E+03   -0.24188E-01   -0.24244E-01  1792   0.186E-01   0.457E-04
CGA:   4    -0.416340509073E+03   -0.44675E-02   -0.44669E-02  1792   0.496E-02   0.169E-05
CGA:   5    -0.416341510114E+03   -0.10010E-02   -0.10009E-02  1792   0.115E-02   0.244E-05
CGA:   6    -0.416341786920E+03   -0.27681E-03   -0.27677E-03  1792   0.379E-03  -0.448E-06
CGA:   7    -0.416341862279E+03   -0.75359E-04   -0.75366E-04  1792   0.113E-03   0.941E-07
CGA:   8    -0.416341891386E+03   -0.29107E-04   -0.29116E-04  1792   0.292E-04   0.391E-06
CGA:   9    -0.416341899484E+03   -0.80982E-05   -0.80987E-05  1792   0.914E-05   0.228E-07
CGA:  10    -0.416341901839E+03   -0.23546E-05   -0.23561E-05  1792   0.246E-05   0.515E-07
CGA:  11    -0.416341902527E+03   -0.68813E-06   -0.68830E-06  1792   0.594E-06   0.894E-07
CGA:  12    -0.416341902717E+03   -0.19050E-06   -0.19083E-06  1792   0.164E-06   0.720E-08
CGA:  13    -0.416341902774E+03   -0.57051E-07   -0.59513E-07  1792   0.575E-07  -0.221E-07
CGA:  14    -0.416341902792E+03   -0.17055E-07   -0.18327E-07  1792   0.180E-07  -0.887E-08
SDA:  15    -0.416341902795E+03   -0.34561E-08   -0.99900E-08  1792   0.225E-07  -0.147E-07
 101 F= -.41634190E+03 E0= -.41634190E+03  d E =-.893696E-11  mag=     0.0000
       N       E                     dE             d eps       ncg     rms           ort
SDA:   1    -0.416228315749E+03    0.11359E+00    0.00000E+00  1792   0.202E+00   0.000E+00
CGA:   2    -0.416316787051E+03   -0.88471E-01   -0.88351E-01  1792   0.643E-01   0.716E-03
CGA:   3    -0.416330776399E+03   -0.13989E-01   -0.13967E-01  1792   0.109E-01   0.164E-04
CGA:   4    -0.416333251566E+03   -0.24752E-02   -0.24747E-02  1792   0.322E-02  -0.420E-05
CGA:   5    -0.416333905305E+03   -0.65374E-03   -0.65373E-03  1792   0.725E-03  -0.412E-06
CGA:   6    -0.416334075006E+03   -0.16970E-03   -0.16984E-03  1792   0.274E-03   0.192E-05
CGA:   7    -0.416334130913E+03   -0.55907E-04   -0.55966E-04  1792   0.784E-04   0.635E-06
CGA:   8    -0.416334152665E+03   -0.21752E-04   -0.21750E-04  1792   0.215E-04  -0.188E-06
CGA:   9    -0.416334158329E+03   -0.56643E-05   -0.56704E-05  1792   0.632E-05   0.250E-06
CGA:  10    -0.416334159913E+03   -0.15832E-05   -0.15909E-05  1792   0.154E-05   0.200E-06
CGA:  11    -0.416334160368E+03   -0.45591E-06   -0.45632E-06  1792   0.361E-06   0.217E-07
CGA:  12    -0.416334160478E+03   -0.10950E-06   -0.11006E-06  1792   0.956E-07   0.290E-08
CGA:  13    -0.416334160503E+03   -0.25415E-07   -0.25929E-07  1792   0.216E-07   0.141E-07
SDA:  14    -0.416334160509E+03   -0.54861E-08   -0.61436E-08  1792   0.626E-08   0.669E-08
 102 F= -.41633416E+03 E0= -.41633416E+03  d E =-.106607E-10  mag=     0.0000
       N       E                     dE             d eps       ncg     rms           ort
SDA:   1    -0.416123629601E+03    0.21053E+00    0.00000E+00  1792   0.418E+00   0.000E+00
CGA:   2    -0.416291937813E+03   -0.16831E+00   -0.16896E+00  1792   0.163E+00  -0.424E-02
CGA:   3    -0.416327357117E+03   -0.35419E-01   -0.35476E-01  1792   0.232E-01   0.496E-04
CGA:   4    -0.416332803425E+03   -0.54463E-02   -0.54472E-02  1792   0.686E-02   0.105E-04
CGA:   5    -0.416334169878E+03   -0.13665E-02   -0.13665E-02  1792   0.162E-02   0.151E-05
CGA:   6    -0.416334526687E+03   -0.35681E-03   -0.35670E-03  1792   0.615E-03  -0.177E-05
CGA:   7    -0.416334660836E+03   -0.13415E-03   -0.13416E-03  1792   0.185E-03   0.145E-06
CGA:   8    -0.416334712465E+03   -0.51629E-04   -0.51620E-04  1792   0.551E-04   0.131E-05
CGA:   9    -0.416334726849E+03   -0.14384E-04   -0.14384E-04  1792   0.181E-04   0.304E-08
CGA:  10    -0.416334731700E+03   -0.48515E-05   -0.48512E-05  1792   0.469E-05  -0.338E-06
CGA:  11    -0.416334733048E+03   -0.13482E-05   -0.13509E-05  1792   0.113E-05  -0.909E-07
CGA:  12    -0.416334733382E+03   -0.33403E-06   -0.33492E-06  1792   0.305E-06  -0.768E-08
CGA:  13    -0.416334733486E+03   -0.10343E-06   -0.10687E-06  1792   0.967E-07  -0.358E-07
SDA:  14    -0.416334733518E+03   -0.31694E-07   -0.39063E-07  1792   0.497E-07  -0.375E-07
CGA:  15    -0.416334733531E+03   -0.13271E-07   -0.13542E-07  1792   0.689E-08  -0.332E-08
CGA:  16    -0.416334733535E+03   -0.37617E-08   -0.41296E-08  1792   0.249E-08  -0.163E-08
 103 F= -.41633473E+03 E0= -.41633473E+03  d E =-.898178E-11  mag=     0.0000
