       N       E                     dE             d eps       ncg     rms          ort
DAV:   1     0.493308710421E+04    0.49331E+04   -0.55881E+05  2688   0.243E+03
DAV:   2    -0.218958626969E+03   -0.51520E+04   -0.51505E+04  2688   0.328E+02
DAV:   3    -0.409929829463E+03   -0.19097E+03   -0.19097E+03  2688   0.890E+01
DAV:   4    -0.413296550721E+03   -0.33667E+01   -0.33667E+01  2688   0.141E+01
DAV:   5    -0.413297347436E+03   -0.79672E-03   -0.79671E-03  2688   0.218E-01
DAV:   6    -0.413297357553E+03   -0.10117E-04   -0.10108E-04  2688   0.245E-02
DAV:   7    -0.413297357563E+03   -0.97061E-08   -0.59439E-09  2688   0.695E-04
DAV:   8    -0.413297357563E+03    0.00000E+00    0.88573E-08  2688   0.249E-05
DAV:   9    -0.413297357563E+03    0.00000E+00    0.88820E-08  2688   0.124E-06
DAV:  10    -0.413297357563E+03    0.00000E+00    0.88972E-08  2688   0.595E-08
DAV:  11    -0.413297357563E+03    0.00000E+00    0.88857E-08  2688   0.399E-09
DAV:  12    -0.413297357563E+03    0.00000E+00    0.88899E-08  2688   0.115E-09
DAV:  13    -0.413297357563E+03    0.00000E+00    0.88852E-08  2688   0.113E-09
DAV:  14    -0.413297357563E+03    0.00000E+00    0.88829E-08  2688   0.121E-09
DAV:  15    -0.413297357563E+03    0.00000E+00    0.88863E-08  2688   0.122E-09
SDA:  16    -0.247600502853E+03    0.16570E+03    0.88863E-08  2688   0.593E+03 0.000E+00
CGA:  17    -0.337060418188E+03   -0.89460E+02   -0.88986E+02  2688   0.730E+02 0.152E+01
CGA:  18    -0.347232706460E+03   -0.10172E+02   -0.10162E+02  2688   0.224E+02 0.392E+00
CGA:  19    -0.352303278978E+03   -0.50706E+01   -0.50688E+01  2688   0.218E+02 0.310E-01
CGA:  20    -0.354850113564E+03   -0.25468E+01   -0.25462E+01  2688   0.818E+01 0.296E-02
CGA:  21    -0.356260170813E+03   -0.14101E+01   -0.14091E+01  2688   0.453E+01-0.231E-01
CGA:  22    -0.356934814372E+03   -0.67464E+00   -0.67387E+00  2688   0.143E+01-0.558E-02
CGA:  23    -0.357148467097E+03   -0.21365E+00   -0.21359E+00  2688   0.475E+00-0.704E-03
CGA:  24    -0.357233351731E+03   -0.84885E-01   -0.84884E-01  2688   0.164E+00 0.123E-04
CGA:  25    -0.357262164112E+03   -0.28812E-01   -0.28815E-01  2688   0.516E-01 0.233E-03
CGA:  26    -0.357272158788E+03   -0.99947E-02   -0.99936E-02  2688   0.187E-01 0.153E-03
CGA:  27    -0.357276610338E+03   -0.44515E-02   -0.44506E-02  2688   0.851E-02 0.223E-04
CGA:  28    -0.357278510687E+03   -0.19003E-02   -0.19013E-02  2688   0.305E-02-0.247E-04
CGA:  29    -0.357279260156E+03   -0.74947E-03   -0.75030E-03  2688   0.116E-02-0.140E-04
CGA:  30    -0.357279546027E+03   -0.28587E-03   -0.28616E-03  2688   0.440E-03-0.489E-05
CGA:  31    -0.357279654932E+03   -0.10890E-03   -0.10920E-03  2688   0.161E-03-0.524E-05
CGA:  32    -0.357279695677E+03   -0.40745E-04   -0.40961E-04  2688   0.603E-04-0.342E-05
CGA:  33    -0.357279711510E+03   -0.15833E-04   -0.16011E-04  2688   0.225E-04-0.236E-05
CGA:  34    -0.357279717773E+03   -0.62638E-05   -0.63690E-05  2688   0.970E-05-0.102E-05
CGA:  35    -0.357279720304E+03   -0.25304E-05   -0.25594E-05  2688   0.428E-05-0.250E-06
CGA:  36    -0.357279721445E+03   -0.11410E-05   -0.11467E-05  2688   0.193E-05 0.109E-06
CGA:  37    -0.357279721968E+03   -0.52313E-06   -0.52748E-06  2688   0.913E-06 0.183E-06
CGA:  38    -0.357279722243E+03   -0.27490E-06   -0.28541E-06  2688   0.510E-06 0.601E-07
CGA:  39    -0.357279722382E+03   -0.13961E-06   -0.15213E-06  2688   0.345E-06-0.122E-07
CGA:  40    -0.357279722464E+03   -0.81985E-07   -0.98053E-07  2688   0.262E-06-0.565E-07
CGA:  41    -0.357279722510E+03   -0.45358E-07   -0.71243E-07  2688   0.313E-06-0.113E-06
CGA:  42    -0.357279722534E+03   -0.24214E-07   -0.28497E-07  2688   0.204E-06-0.491E-07
CGA:  43    -0.357279722559E+03   -0.25480E-07   -0.32662E-07  2688   0.139E-06-0.249E-07
CGA:  44    -0.357279722575E+03   -0.15556E-07   -0.24239E-07  2688   0.831E-07 0.520E-08
CGA:  45    -0.357279722585E+03   -0.98080E-08   -0.21527E-07  2688   0.682E-07-0.106E-07
CGA:  46    -0.357279722574E+03    0.11103E-07   -0.29068E-07  2688   0.132E-06-0.753E-07
CGA:  47    -0.357279722601E+03   -0.27620E-07   -0.53161E-07  2688   0.117E-06-0.561E-07
CGA:  48    -0.357279722521E+03    0.80050E-07   -0.48554E-07  2688   0.703E-06-0.188E-06
CGA:  49    -0.357279722609E+03   -0.87864E-07   -0.10727E-06  2688   0.928E-07 0.405E-07
CGA:  50    -0.357279722630E+03   -0.20620E-07   -0.33031E-07  2688   0.187E-07-0.941E-08
CGA:  51    -0.357279722630E+03   -0.58208E-10    0.31293E-07  2688   0.767E-08-0.208E-08
   1 F= -.35727972E+03 E0= -.35727972E+03  d E =-.207395E-11  mag=     0.0000
 Linear response reoptimize wavefunctions
DAV:   1    -0.357279722633E+03   -0.31141E-08    0.75830E-08 15232   0.286E-04
DAV:   2    -0.357279722633E+03    0.00000E+00    0.96793E-08 10752   0.877E-06
DAV:   3    -0.357279722633E+03    0.00000E+00    0.96872E-08 21504   0.101E-06
 Linear response G [H, r] |phi>, progress :
  Direction:   1
       N       E                     dE             d eps       ncg     rms
RMM:   1    -0.315424868202E+04   -0.31542E+04   -0.43639E+05 15986   0.208E+03
RMM:   2    -0.290822826379E+04    0.24602E+03   -0.94691E+02 19905   0.897E+01
RMM:   3    -0.293761927719E+04   -0.29391E+02   -0.13424E+02 20802   0.238E+01
RMM:   4    -0.293764416311E+04   -0.24886E-01   -0.16039E+01 21668   0.717E+00
RMM:   5    -0.293791352522E+04   -0.26936E+00   -0.37967E+00 22807   0.352E+00
RMM:   6    -0.293795404610E+04   -0.40521E-01   -0.94231E-01 22755   0.142E+00
RMM:   7    -0.293797501035E+04   -0.20964E-01   -0.26571E-01 22200   0.782E-01
RMM:   8    -0.293798528893E+04   -0.10279E-01   -0.97586E-02 21962   0.396E-01
RMM:   9    -0.293798531083E+04   -0.21902E-04   -0.25850E-02 22332   0.229E-01
RMM:  10    -0.293798785040E+04   -0.25396E-02   -0.21741E-02 22503   0.133E-01
RMM:  11    -0.293798685926E+04    0.99114E-03   -0.48220E-03 22681   0.834E-02
RMM:  12    -0.293798796981E+04   -0.11106E-02   -0.12762E-02 23134   0.593E-02
RMM:  13    -0.293798737314E+04    0.59667E-03   -0.60127E-03 23855   0.453E-02
RMM:  14    -0.293798822952E+04   -0.85637E-03   -0.14189E-02 24108   0.377E-02
RMM:  15    -0.293798714553E+04    0.10840E-02   -0.32666E-03 24216   0.346E-02
RMM:  16    -0.293798804260E+04   -0.89707E-03   -0.12212E-02 24215   0.334E-02
RMM:  17    -0.293798761720E+04    0.42540E-03   -0.79512E-03 24141   0.332E-02
 Linear response G [H, r] |phi>, progress :
  Direction:   2
       N       E                     dE             d eps       ncg     rms
RMM:   1    -0.291011807273E+04   -0.29101E+04   -0.43110E+05 18446   0.207E+03
RMM:   2    -0.295049627576E+04   -0.40378E+02   -0.70804E+02 19137   0.706E+01
RMM:   3    -0.295898468683E+04   -0.84884E+01   -0.78655E+01 20897   0.242E+01
RMM:   4    -0.295936204737E+04   -0.37736E+00   -0.12888E+01 21108   0.708E+00
RMM:   5    -0.295952751704E+04   -0.16547E+00   -0.27447E+00 22217   0.351E+00
RMM:   6    -0.295957323307E+04   -0.45716E-01   -0.78619E-01 22869   0.139E+00
RMM:   7    -0.295958455097E+04   -0.11318E-01   -0.19290E-01 22731   0.770E-01
RMM:   8    -0.295959026788E+04   -0.57169E-02   -0.66969E-02 22519   0.382E-01
RMM:   9    -0.295958965862E+04    0.60926E-03   -0.52120E-03 22595   0.224E-01
RMM:  10    -0.295958884340E+04    0.81522E-03    0.22603E-02 22884   0.132E-01
RMM:  11    -0.295959201491E+04   -0.31715E-02   -0.34149E-03 23207   0.863E-02
RMM:  12    -0.295959357695E+04   -0.15620E-02   -0.16651E-02 23702   0.616E-02
RMM:  13    -0.295958941203E+04    0.41649E-02    0.25622E-02 24579   0.486E-02
RMM:  14    -0.295959301110E+04   -0.35991E-02   -0.10085E-02 24721   0.412E-02
RMM:  15    -0.295959174405E+04    0.12670E-02    0.26459E-03 24839   0.385E-02
RMM:  16    -0.295959181104E+04   -0.66991E-04    0.20004E-03 24735   0.374E-02
RMM:  17    -0.295959263807E+04   -0.82703E-03   -0.62716E-03 24697   0.371E-02
 Linear response G [H, r] |phi>, progress :
  Direction:   3
       N       E                     dE             d eps       ncg     rms
RMM:   1    -0.295330577533E+04   -0.29533E+04   -0.43183E+05 18264   0.207E+03
RMM:   2    -0.294834491875E+04    0.49609E+01   -0.70036E+02 19098   0.713E+01
RMM:   3    -0.295863892076E+04   -0.10294E+02   -0.85446E+01 20589   0.245E+01
RMM:   4    -0.295873335780E+04   -0.94437E-01   -0.12336E+01 20724   0.707E+00
RMM:   5    -0.295896435262E+04   -0.23099E+00   -0.29318E+00 22152   0.352E+00
RMM:   6    -0.295898602998E+04   -0.21677E-01   -0.73659E-01 22757   0.139E+00
RMM:   7    -0.295900582264E+04   -0.19793E-01   -0.19914E-01 22586   0.764E-01
RMM:   8    -0.295900928602E+04   -0.34634E-02   -0.58159E-02 22300   0.375E-01
RMM:   9    -0.295901104067E+04   -0.17547E-02   -0.20781E-02 22328   0.220E-01
RMM:  10    -0.295901155613E+04   -0.51546E-03   -0.77127E-03 22559   0.128E-01
RMM:  11    -0.295901174299E+04   -0.18686E-03   -0.39702E-03 22873   0.828E-02
RMM:  12    -0.295901183803E+04   -0.95044E-04   -0.27470E-03 23402   0.580E-02
RMM:  13    -0.295901187336E+04   -0.35330E-04   -0.24373E-03 24235   0.445E-02
RMM:  14    -0.295901189039E+04   -0.17032E-04   -0.23331E-03 24498   0.371E-02
RMM:  15    -0.295901189084E+04   -0.44384E-06   -0.22731E-03 24585   0.341E-02
RMM:  16    -0.295901189397E+04   -0.31288E-05   -0.22852E-03 24493   0.331E-02
RMM:  17    -0.295901189272E+04    0.12472E-05   -0.22683E-03 24439   0.328E-02
 Linear response to external field (no local field effect), progress :
  Direction:   1
       N       E                     dE             d eps       ncg     rms          rms(c)
RMM:   1    -0.481789804608E+01   -0.48179E+01    0.18848E+00 18060   0.163E+01
RMM:   2    -0.840597681734E+01   -0.35881E+01    0.25415E+00 17759   0.334E+00
RMM:   3    -0.888809957021E+01   -0.48212E+00   -0.39892E-01 19680   0.998E-01
RMM:   4    -0.889466319394E+01   -0.65636E-02   -0.49672E-02 22797   0.380E-01
RMM:   5    -0.889640446512E+01   -0.17413E-02   -0.13405E-02 23038   0.203E-01
RMM:   6    -0.889673803486E+01   -0.33357E-03   -0.36416E-03 21665   0.884E-02
RMM:   7    -0.889683709772E+01   -0.99063E-04   -0.11492E-03 21712   0.480E-02
RMM:   8    -0.889687925804E+01   -0.42160E-04   -0.31460E-04 21347   0.254E-02
RMM:   9    -0.889688957165E+01   -0.10314E-04   -0.13677E-04 21879   0.136E-02
RMM:  10    -0.889689412904E+01   -0.45574E-05   -0.33588E-05 21526   0.805E-03
RMM:  11    -0.889689553920E+01   -0.14102E-05   -0.21536E-05 22586   0.449E-03
RMM:  12    -0.889689585611E+01   -0.31692E-06   -0.71210E-06 22553   0.264E-03
RMM:  13    -0.889689600882E+01   -0.15271E-06   -0.67828E-06 23688   0.190E-03
RMM:  14    -0.889689603206E+01   -0.23232E-07   -0.59477E-06 23438   0.144E-03
RMM:  15    -0.889689604255E+01   -0.10497E-07   -0.59676E-06 23493   0.134E-03
RMM:  16    -0.889689604722E+01   -0.46647E-08   -0.59881E-06 23429   0.131E-03
RMM:  17    -0.889689604671E+01    0.50532E-09   -0.59798E-06 23365   0.130E-03
 Linear response to external field (no local field effect), progress :
  Direction:   2
       N       E                     dE             d eps       ncg     rms          rms(c)
RMM:   1    -0.752361018845E+01   -0.75236E+01   -0.21123E+01 19294   0.151E+01
RMM:   2    -0.984915421395E+01   -0.23255E+01    0.13686E+00 18554   0.281E+00
RMM:   3    -0.101598417162E+02   -0.31069E+00   -0.24150E-01 19157   0.813E-01
RMM:   4    -0.101627510652E+02   -0.29093E-02   -0.25113E-02 22186   0.322E-01
RMM:   5    -0.101644633563E+02   -0.17123E-02   -0.98462E-03 22719   0.162E-01
RMM:   6    -0.101647031503E+02   -0.23979E-03   -0.24032E-03 21828   0.745E-02
RMM:   7    -0.101648079793E+02   -0.10483E-03   -0.95663E-04 21245   0.400E-02
RMM:   8    -0.101648382972E+02   -0.30318E-04   -0.24307E-04 21324   0.219E-02
RMM:   9    -0.101648502087E+02   -0.11911E-04   -0.11637E-04 21657   0.115E-02
RMM:  10    -0.101648525649E+02   -0.23562E-05   -0.21141E-05 21646   0.634E-03
RMM:  11    -0.101648535192E+02   -0.95438E-06   -0.13381E-05 22353   0.361E-03
RMM:  12    -0.101648536627E+02   -0.14344E-06   -0.56473E-06 22409   0.224E-03
RMM:  13    -0.101648537368E+02   -0.74128E-07   -0.54684E-06 23144   0.171E-03
RMM:  14    -0.101648537623E+02   -0.25486E-07   -0.52718E-06 23273   0.143E-03
RMM:  15    -0.101648537705E+02   -0.82364E-08   -0.52786E-06 23292   0.132E-03
RMM:  16    -0.101648537740E+02   -0.34633E-08   -0.52874E-06 23220   0.128E-03
RMM:  17    -0.101648537749E+02   -0.92021E-09   -0.52894E-06 23164   0.127E-03
 Linear response to external field (no local field effect), progress :
  Direction:   3
       N       E                     dE             d eps       ncg     rms          rms(c)
RMM:   1    -0.603578751546E+01   -0.60358E+01   -0.11228E+01 18784   0.153E+01
RMM:   2    -0.822993587622E+01   -0.21941E+01    0.17610E+00 18080   0.295E+00
RMM:   3    -0.857733726122E+01   -0.34740E+00   -0.30401E-01 19832   0.829E-01
RMM:   4    -0.857994568571E+01   -0.26084E-02   -0.29503E-02 22735   0.319E-01
RMM:   5    -0.858142194136E+01   -0.14763E-02   -0.99121E-03 23001   0.165E-01
RMM:   6    -0.858167803752E+01   -0.25610E-03   -0.26184E-03 21796   0.759E-02
RMM:   7    -0.858177682683E+01   -0.98789E-04   -0.98866E-04 21197   0.420E-02
RMM:   8    -0.858181166581E+01   -0.34839E-04   -0.26584E-04 21187   0.231E-02
RMM:   9    -0.858182364124E+01   -0.11975E-04   -0.12702E-04 21530   0.125E-02
RMM:  10    -0.858182697495E+01   -0.33337E-05   -0.27959E-05 21415   0.720E-03
RMM:  11    -0.858182832801E+01   -0.13531E-05   -0.18429E-05 22165   0.414E-03
RMM:  12    -0.858182853539E+01   -0.20738E-06   -0.69580E-06 22252   0.252E-03
RMM:  13    -0.858182864588E+01   -0.11049E-06   -0.66903E-06 23127   0.190E-03
RMM:  14    -0.858182867503E+01   -0.29158E-07   -0.62639E-06 23169   0.154E-03
RMM:  15    -0.858182868601E+01   -0.10981E-07   -0.62818E-06 23301   0.142E-03
RMM:  16    -0.858182869126E+01   -0.52455E-08   -0.63031E-06 23153   0.137E-03
RMM:  17    -0.858182869099E+01    0.26957E-09   -0.62926E-06 23144   0.136E-03
 Linear response to external field, progress :
  Direction:   1
       N       E                     dE             d eps       ncg     rms          rms(c)
RMM:   1    -0.481789804608E+01   -0.48179E+01    0.18848E+00 18060   0.163E+01
RMM:   2    -0.840597681734E+01   -0.35881E+01    0.25415E+00 17759   0.334E+00    0.449E+00
RMM:   3    -0.878849286609E+01   -0.38252E+00   -0.37474E-01 18793   0.101E+00    0.420E+00
RMM:   4    -0.862488260116E+01    0.16361E+00   -0.10281E+00 20442   0.137E+00    0.256E+00
RMM:   5    -0.855747981487E+01    0.67403E-01    0.13550E-01 19140   0.581E-01    0.234E+00
RMM:   6    -0.867288430140E+01   -0.11540E+00   -0.22597E-01 20034   0.865E-01    0.833E-01
RMM:   7    -0.870585849995E+01   -0.32974E-01    0.12699E-01 20640   0.312E-01    0.704E-01
RMM:   8    -0.868369442787E+01    0.22164E-01    0.57788E-02 18620   0.277E-01    0.376E-01
RMM:   9    -0.868932974224E+01   -0.56353E-02    0.48455E-02 21488   0.180E-01    0.348E-01
RMM:  10    -0.869286405731E+01   -0.35343E-02    0.71362E-02 18865   0.100E-01    0.171E-01
RMM:  11    -0.869750713404E+01   -0.46431E-02    0.73590E-02 19513   0.984E-02    0.112E-01
RMM:  12    -0.869889253850E+01   -0.13854E-02    0.80266E-02 18883   0.572E-02    0.650E-02
RMM:  13    -0.870069672542E+01   -0.18042E-02    0.69192E-02 20654   0.406E-02    0.611E-02
RMM:  14    -0.869921934145E+01    0.14774E-02    0.95125E-02 19622   0.222E-02    0.299E-02
RMM:  15    -0.870250314546E+01   -0.32838E-02    0.65707E-02 20732   0.172E-02    0.268E-02
RMM:  16    -0.869924571821E+01    0.32574E-02    0.99304E-02 22275   0.118E-02    0.135E-02
RMM:  17    -0.870372672666E+01   -0.44810E-02    0.57142E-02 21303   0.922E-03    0.899E-03
RMM:  18    -0.870089461677E+01    0.28321E-02    0.87714E-02 23142   0.523E-03    0.752E-03
RMM:  19    -0.870422778916E+01   -0.33332E-02    0.56768E-02 24203   0.520E-03    0.319E-03
RMM:  20    -0.870253014532E+01    0.16976E-02    0.74036E-02 25299   0.381E-03    0.331E-03
RMM:  21    -0.870415656565E+01   -0.16264E-02    0.58048E-02 25034   0.359E-03    0.179E-03
RMM:  22    -0.870150574647E+01    0.26508E-02    0.84745E-02 25457   0.337E-03    0.127E-03
RMM:  23    -0.870384910573E+01   -0.23434E-02    0.61469E-02 25879   0.327E-03    0.837E-04
RMM:  24    -0.870135671630E+01    0.24924E-02    0.86495E-02 25652   0.329E-03    0.478E-04
RMM:  25    -0.870391758353E+01   -0.25609E-02    0.60911E-02 26112   0.323E-03    0.444E-04
RMM:  26    -0.870206320674E+01    0.18544E-02    0.79501E-02 25838   0.325E-03    0.268E-04
RMM:  27    -0.870340159024E+01   -0.13384E-02    0.66108E-02 26172   0.321E-03    0.268E-04
RMM:  28    -0.870278540549E+01    0.61618E-03    0.72263E-02 26160   0.324E-03    0.144E-04
RMM:  29    -0.870299117297E+01   -0.20577E-03    0.70207E-02 26200   0.320E-03    0.167E-04
RMM:  30    -0.870233473618E+01    0.65644E-03    0.76772E-02 26261   0.324E-03    0.931E-05
RMM:  31    -0.870364575585E+01   -0.13110E-02    0.63660E-02 26244   0.320E-03    0.145E-04
RMM:  32    -0.870280069710E+01    0.84506E-03    0.72111E-02 26229   0.324E-03    0.795E-05
RMM:  33    -0.870351696189E+01   -0.71626E-03    0.64947E-02 26231   0.320E-03    0.149E-04
RMM:  34    -0.870309221321E+01    0.42475E-03    0.69193E-02 26250   0.324E-03    0.782E-05
RMM:  35    -0.870339030775E+01   -0.29809E-03    0.66210E-02 26256   0.320E-03    0.149E-04
RMM:  36    -0.870302299811E+01    0.36731E-03    0.69881E-02 26231   0.324E-03    0.721E-05
RMM:  37    -0.870298797016E+01    0.35028E-04    0.70230E-02 26244   0.319E-03    0.145E-04
RMM:  38    -0.870274650191E+01    0.24147E-03    0.72645E-02 26244   0.325E-03    0.741E-05
RMM:  39    -0.870318414461E+01   -0.43764E-03    0.68268E-02 26257   0.320E-03    0.151E-04
RMM:  40    -0.870236159661E+01    0.82255E-03    0.76493E-02 26278   0.324E-03    0.804E-05
RMM:  41    -0.870352008887E+01   -0.11585E-02    0.64908E-02 26251   0.320E-03    0.152E-04
RMM:  42    -0.870294181122E+01    0.57828E-03    0.70691E-02 26231   0.324E-03    0.778E-05
RMM:  43    -0.870328521677E+01   -0.34341E-03    0.67257E-02 26247   0.319E-03    0.155E-04
RMM:  44    -0.870293111827E+01    0.35410E-03    0.70798E-02 26253   0.324E-03    0.831E-05
RMM:  45    -0.870348168459E+01   -0.55057E-03    0.65292E-02 26260   0.320E-03    0.161E-04
RMM:  46    -0.870207149033E+01    0.14102E-02    0.79394E-02 26265   0.324E-03    0.854E-05
RMM:  47    -0.870372141529E+01   -0.16499E-02    0.62895E-02 26260   0.320E-03    0.153E-04
RMM:  48    -0.870220123328E+01    0.15202E-02    0.78097E-02 26245   0.324E-03    0.817E-05
RMM:  49    -0.870366493033E+01   -0.14637E-02    0.63460E-02 26269   0.320E-03    0.159E-04
RMM:  50    -0.870230833414E+01    0.13566E-02    0.77026E-02 26241   0.324E-03    0.841E-05
RMM:  51    -0.870365033224E+01   -0.13420E-02    0.63606E-02 26258   0.320E-03    0.156E-04
RMM:  52    -0.870257045935E+01    0.10799E-02    0.74405E-02 26254   0.324E-03    0.783E-05
RMM:  53    -0.870337213759E+01   -0.80168E-03    0.66387E-02 26238   0.320E-03    0.165E-04
RMM:  54    -0.870232790184E+01    0.10442E-02    0.76830E-02 26260   0.324E-03    0.876E-05
RMM:  55    -0.870352696856E+01   -0.11991E-02    0.64839E-02 26292   0.320E-03    0.153E-04
RMM:  56    -0.870202154671E+01    0.15054E-02    0.79893E-02 26259   0.324E-03    0.870E-05
RMM:  57    -0.870343469243E+01   -0.14131E-02    0.65762E-02 26249   0.320E-03    0.153E-04
RMM:  58    -0.870168572294E+01    0.17490E-02    0.83251E-02 26256   0.324E-03    0.956E-05
RMM:  59    -0.870377969774E+01   -0.20940E-02    0.62311E-02 26265   0.320E-03    0.145E-04
RMM:  60    -0.870209688266E+01    0.16828E-02    0.79139E-02 26278   0.324E-03    0.796E-05
RMM:  61    -0.870311506480E+01   -0.10182E-02    0.68958E-02 26252   0.320E-03    0.158E-04
RMM:  62    -0.870171889719E+01    0.13962E-02    0.82919E-02 26251   0.323E-03    0.927E-05
RMM:  63    -0.870358316575E+01   -0.18643E-02    0.64276E-02 26252   0.320E-03    0.151E-04
RMM:  64    -0.870194809839E+01    0.16351E-02    0.80627E-02 26262   0.323E-03    0.874E-05
RMM:  65    -0.870339832602E+01   -0.14502E-02    0.66125E-02 26294   0.320E-03    0.139E-04
RMM:  66    -0.870220238349E+01    0.11959E-02    0.78084E-02 26258   0.324E-03    0.855E-05
RMM:  67    -0.870333625356E+01   -0.11339E-02    0.66746E-02 26268   0.320E-03    0.146E-04
RMM:  68    -0.870210488605E+01    0.12314E-02    0.79058E-02 26249   0.324E-03    0.867E-05
RMM:  69    -0.870321699757E+01   -0.11121E-02    0.67938E-02 26255   0.320E-03    0.148E-04
RMM:  70    -0.870229647311E+01    0.92052E-03    0.77143E-02 26289   0.324E-03    0.860E-05
RMM:  71    -0.870307393273E+01   -0.77746E-03    0.69368E-02 26260   0.320E-03    0.143E-04
RMM:  72    -0.870228224934E+01    0.79168E-03    0.77285E-02 26265   0.324E-03    0.842E-05
RMM:  73    -0.870295421635E+01   -0.67197E-03    0.70566E-02 26252   0.320E-03    0.138E-04
RMM:  74    -0.870238513800E+01    0.56908E-03    0.76256E-02 26224   0.324E-03    0.799E-05
RMM:  75    -0.870269940428E+01   -0.31427E-03    0.73114E-02 26300   0.320E-03    0.139E-04
RMM:  76    -0.870248602829E+01    0.21338E-03    0.75248E-02 26283   0.324E-03    0.802E-05
RMM:  77    -0.870239367592E+01    0.92352E-04    0.76171E-02 26258   0.319E-03    0.147E-04
RMM:  78    -0.870225396919E+01    0.13971E-03    0.77569E-02 26252   0.324E-03    0.893E-05
RMM:  79    -0.870300815475E+01   -0.75419E-03    0.70026E-02 26259   0.320E-03    0.139E-04
RMM:  80    -0.870217531831E+01    0.83284E-03    0.78355E-02 26280   0.324E-03    0.899E-05
RMM:  81    -0.870334903187E+01   -0.11737E-02    0.66618E-02 26252   0.320E-03    0.139E-04
RMM:  82    -0.870185450550E+01    0.14945E-02    0.81563E-02 26263   0.323E-03    0.912E-05
RMM:  83    -0.870328128385E+01   -0.14268E-02    0.67295E-02 26264   0.320E-03    0.139E-04
RMM:  84    -0.870191714599E+01    0.13641E-02    0.80936E-02 26266   0.323E-03    0.911E-05
RMM:  85    -0.870329276875E+01   -0.13756E-02    0.67180E-02 26272   0.320E-03    0.138E-04
RMM:  86    -0.870166968959E+01    0.16231E-02    0.83411E-02 26246   0.323E-03    0.944E-05
RMM:  87    -0.870349322651E+01   -0.18235E-02    0.65175E-02 26285   0.321E-03    0.131E-04
RMM:  88    -0.870139825022E+01    0.20950E-02    0.86126E-02 26264   0.322E-03    0.971E-05
RMM:  89    -0.870385389119E+01   -0.24556E-02    0.61569E-02 26262   0.321E-03    0.123E-04
RMM:  90    -0.870174153112E+01    0.21124E-02    0.82693E-02 26274   0.322E-03    0.909E-05
RMM:  91    -0.870355187307E+01   -0.18103E-02    0.64590E-02 26279   0.321E-03    0.115E-04
RMM:  92    -0.870222051016E+01    0.13314E-02    0.77903E-02 26259   0.323E-03    0.821E-05
RMM:  93    -0.870289213514E+01   -0.67162E-03    0.71187E-02 26233   0.320E-03    0.116E-04
RMM:  94    -0.870268307573E+01    0.20906E-03    0.73278E-02 26257   0.324E-03    0.790E-05
RMM:  95    -0.870261344865E+01    0.69627E-04    0.73974E-02 26281   0.320E-03    0.116E-04
RMM:  96    -0.870261163794E+01    0.18107E-05    0.73992E-02 26263   0.324E-03    0.804E-05
RMM:  97    -0.870281003071E+01   -0.19839E-03    0.72008E-02 26277   0.320E-03    0.116E-04
RMM:  98    -0.870212352521E+01    0.68651E-03    0.78872E-02 26257   0.323E-03    0.809E-05
RMM:  99    -0.870278869458E+01   -0.66517E-03    0.72220E-02 26272   0.320E-03    0.113E-04
RMM: 100    -0.870233160025E+01    0.45709E-03    0.76791E-02 26285   0.323E-03    0.799E-05
RMM: 101    -0.870257646561E+01   -0.24487E-03    0.74343E-02 26251   0.320E-03    0.114E-04
RMM: 102    -0.870243511328E+01    0.14135E-03    0.75756E-02 26264   0.323E-03    0.820E-05
RMM: 103    -0.870285019250E+01   -0.41508E-03    0.71605E-02 26268   0.320E-03    0.111E-04
RMM: 104    -0.870245726689E+01    0.39293E-03    0.75535E-02 26261   0.323E-03    0.825E-05
RMM: 105    -0.870294040303E+01   -0.48314E-03    0.70704E-02 26273   0.320E-03    0.103E-04
RMM: 106    -0.870262273218E+01    0.31767E-03    0.73880E-02 26263   0.323E-03    0.776E-05
RMM: 107    -0.870223985527E+01    0.38288E-03    0.77709E-02 26283   0.320E-03    0.109E-04
RMM: 108    -0.870282515937E+01   -0.58530E-03    0.71855E-02 26260   0.323E-03    0.805E-05
RMM: 109    -0.870222836221E+01    0.59680E-03    0.77822E-02 26266   0.320E-03    0.106E-04
RMM: 110    -0.870294318734E+01   -0.71483E-03    0.70674E-02 26265   0.323E-03    0.833E-05
RMM: 111    -0.870225907314E+01    0.68411E-03    0.77514E-02 26277   0.320E-03    0.104E-04
RMM: 112    -0.870271740522E+01   -0.45833E-03    0.72931E-02 26279   0.323E-03    0.833E-05
RMM: 113    -0.870229029730E+01    0.42711E-03    0.77202E-02 26242   0.320E-03    0.961E-05
RMM: 114    -0.870269484386E+01   -0.40455E-03    0.73156E-02 26248   0.323E-03    0.791E-05
RMM: 115    -0.870218503275E+01    0.50981E-03    0.78254E-02 26291   0.321E-03    0.951E-05
RMM: 116    -0.870270785331E+01   -0.52282E-03    0.73026E-02 26268   0.323E-03    0.754E-05
RMM: 117    -0.870215635617E+01    0.55150E-03    0.78541E-02 26266   0.320E-03    0.964E-05
RMM: 118    -0.870283339245E+01   -0.67704E-03    0.71771E-02 26260   0.323E-03    0.801E-05
RMM: 119    -0.870219701825E+01    0.63637E-03    0.78134E-02 26278   0.320E-03    0.936E-05
RMM: 120    -0.870279917060E+01   -0.60215E-03    0.72113E-02 26290   0.323E-03    0.782E-05
RMM: 121    -0.870221398392E+01    0.58519E-03    0.77965E-02 26263   0.320E-03    0.877E-05
RMM: 122    -0.870280517309E+01   -0.59119E-03    0.72055E-02 26243   0.323E-03    0.783E-05
RMM: 123    -0.870216197350E+01    0.64320E-03    0.78485E-02 26260   0.320E-03    0.855E-05
 Linear response to external field, progress :
  Direction:   2
       N       E                     dE             d eps       ncg     rms          rms(c)
RMM:   1    -0.752361018845E+01   -0.75236E+01   -0.21123E+01 19294   0.151E+01
RMM:   2    -0.984915421394E+01   -0.23255E+01    0.13686E+00 18554   0.281E+00    0.483E+00
RMM:   3    -0.100905773106E+02   -0.24142E+00   -0.24626E-01 18660   0.842E-01    0.456E+00
RMM:   4    -0.995034976123E+01    0.14023E+00   -0.10460E+00 19479   0.188E+00    0.146E+00
RMM:   5    -0.998484205799E+01   -0.34492E-01   -0.35451E-02 18950   0.520E-01    0.124E+00
RMM:   6    -0.100386943514E+02   -0.53852E-01   -0.20779E-02 19140   0.336E-01    0.703E-01
RMM:   7    -0.100714771028E+02   -0.32783E-01   -0.14744E-02 20931   0.174E-01    0.504E-01
RMM:   8    -0.100658173661E+02    0.56597E-02   -0.62053E-03 18952   0.132E-01    0.346E-01
RMM:   9    -0.100814063468E+02   -0.15589E-01   -0.18932E-02 19984   0.175E-01    0.322E-01
RMM:  10    -0.100834144471E+02   -0.20081E-02   -0.57227E-03 19791   0.936E-02    0.975E-02
RMM:  11    -0.100816609900E+02    0.17535E-02   -0.16299E-03 20570   0.519E-02    0.620E-02
RMM:  12    -0.100838385694E+02   -0.21776E-02   -0.13755E-03 19698   0.271E-02    0.535E-02
RMM:  13    -0.100863927544E+02   -0.25542E-02   -0.94991E-04 20529   0.253E-02    0.362E-02
RMM:  14    -0.100873913707E+02   -0.99862E-03   -0.12920E-03 18854   0.131E-02    0.295E-02
RMM:  15    -0.100884207933E+02   -0.10294E-02   -0.41150E-04 19194   0.130E-02    0.132E-02
RMM:  16    -0.100889704967E+02   -0.54970E-03   -0.13949E-03 20931   0.718E-03    0.114E-02
RMM:  17    -0.100890248917E+02   -0.54395E-04   -0.49188E-04 21462   0.457E-03    0.778E-03
RMM:  18    -0.100893427008E+02   -0.31781E-03   -0.10218E-03 23316   0.452E-03    0.547E-03
RMM:  19    -0.100893557325E+02   -0.13032E-04   -0.80675E-04 22852   0.282E-03    0.313E-03
RMM:  20    -0.100894069118E+02   -0.51179E-04   -0.10321E-03 24195   0.261E-03    0.198E-03
RMM:  21    -0.100893867857E+02    0.20126E-04   -0.74723E-04 24546   0.228E-03    0.103E-03
RMM:  22    -0.100894224297E+02   -0.35644E-04   -0.99495E-04 25045   0.209E-03    0.800E-04
RMM:  23    -0.100894063349E+02    0.16095E-04   -0.88294E-04 24895   0.203E-03    0.572E-04
RMM:  24    -0.100894193116E+02   -0.12977E-04   -0.10272E-03 24807   0.201E-03    0.450E-04
RMM:  25    -0.100894022139E+02    0.17098E-04   -0.88927E-04 25055   0.200E-03    0.313E-04
RMM:  26    -0.100894154264E+02   -0.13213E-04   -0.10355E-03 25120   0.200E-03    0.176E-04
RMM:  27    -0.100894038853E+02    0.11541E-04   -0.91550E-04 25270   0.199E-03    0.150E-04
RMM:  28    -0.100894109452E+02   -0.70599E-05   -0.99522E-04 25218   0.198E-03    0.944E-05
RMM:  29    -0.100894009187E+02    0.10027E-04   -0.88846E-04 25207   0.198E-03    0.691E-05
RMM:  30    -0.100894127626E+02   -0.11844E-04   -0.10078E-03 25213   0.198E-03    0.684E-05
RMM:  31    -0.100894049174E+02    0.78453E-05   -0.93097E-04 25230   0.198E-03    0.425E-05
RMM:  32    -0.100894152322E+02   -0.10315E-04   -0.10335E-03 25256   0.198E-03    0.432E-05
RMM:  33    -0.100894075410E+02    0.76912E-05   -0.95817E-04 25171   0.198E-03    0.341E-05
RMM:  34    -0.100894073355E+02    0.20556E-06   -0.95701E-04 25281   0.198E-03    0.376E-05
RMM:  35    -0.100894090174E+02   -0.16820E-05   -0.97498E-04 25248   0.198E-03    0.304E-05
RMM:  36    -0.100894013961E+02    0.76214E-05   -0.89939E-04 25257   0.198E-03    0.371E-05
RMM:  37    -0.100894059191E+02   -0.45230E-05   -0.94488E-04 25216   0.198E-03    0.282E-05
RMM:  38    -0.100894002366E+02    0.56825E-05   -0.88797E-04 25224   0.198E-03    0.369E-05
RMM:  39    -0.100894038378E+02   -0.36012E-05   -0.92386E-04 25246   0.198E-03    0.266E-05
RMM:  40    -0.100894019301E+02    0.19076E-05   -0.90500E-04 25243   0.198E-03    0.354E-05
RMM:  41    -0.100894030615E+02   -0.11313E-05   -0.91631E-04 25275   0.198E-03    0.251E-05
RMM:  42    -0.100894052057E+02   -0.21443E-05   -0.93764E-04 25244   0.197E-03    0.343E-05
RMM:  43    -0.100894004932E+02    0.47126E-05   -0.89059E-04 25202   0.198E-03    0.244E-05
RMM:  44    -0.100894006496E+02   -0.15640E-06   -0.89233E-04 25249   0.198E-03    0.326E-05
RMM:  45    -0.100894022373E+02   -0.15878E-05   -0.90822E-04 25247   0.198E-03    0.234E-05
RMM:  46    -0.100894029842E+02   -0.74690E-06   -0.91581E-04 25305   0.198E-03    0.311E-05
RMM:  47    -0.100894023002E+02    0.68401E-06   -0.90880E-04 25228   0.198E-03    0.237E-05
RMM:  48    -0.100894033667E+02   -0.10665E-05   -0.92007E-04 25263   0.197E-03    0.299E-05
RMM:  49    -0.100894053429E+02   -0.19762E-05   -0.93993E-04 25223   0.198E-03    0.246E-05
RMM:  50    -0.100893979953E+02    0.73476E-05   -0.86646E-04 25288   0.198E-03    0.287E-05
RMM:  51    -0.100894070352E+02   -0.90399E-05   -0.95680E-04 25272   0.198E-03    0.269E-05
 Linear response to external field, progress :
  Direction:   3
       N       E                     dE             d eps       ncg     rms          rms(c)
RMM:   1    -0.603578751546E+01   -0.60358E+01   -0.11228E+01 18784   0.153E+01
RMM:   2    -0.822993587622E+01   -0.21941E+01    0.17610E+00 18080   0.295E+00    0.550E+00
RMM:   3    -0.710606601285E+01    0.11239E+01    0.14042E+00 18247   0.102E+00    0.435E+00
RMM:   4    -0.822225311363E+01   -0.11162E+01    0.35825E+01 20311   0.223E+00    0.218E+00
RMM:   5    -0.837818364482E+01   -0.15593E+00    0.43998E+01 19477   0.105E+00    0.133E+00
RMM:   6    -0.991579128709E+01   -0.15376E+01    0.56994E+01 19942   0.109E+00    0.714E-01
RMM:   7    -0.992602702712E+01   -0.10236E-01    0.61058E+01 20113   0.536E-01    0.523E-01
RMM:   8    -0.945916485901E+01    0.46686E+00    0.59062E+01 20682   0.327E-01    0.284E-01
RMM:   9    -0.940940420860E+01    0.49761E-01    0.59352E+01 20079   0.190E-01    0.257E-01
RMM:  10    -0.949000211833E+01   -0.80598E-01    0.60353E+01 20516   0.152E-01    0.144E-01
RMM:  11    -0.951992798252E+01   -0.29926E-01    0.59143E+01 21265   0.117E-01    0.114E-01
RMM:  12    -0.940167586072E+01    0.11825E+00    0.60400E+01 18380   0.106E-01    0.766E-02
RMM:  13    -0.946942633793E+01   -0.67750E-01    0.59345E+01 21263   0.776E-02    0.591E-02
RMM:  14    -0.946681281034E+01    0.26135E-02    0.59583E+01 19537   0.669E-02    0.281E-02
RMM:  15    -0.960352125962E+01   -0.13671E+00    0.58414E+01 22148   0.575E-02    0.195E-02
RMM:  16    -0.951126735961E+01    0.92254E-01    0.59266E+01 22658   0.516E-02    0.117E-02
RMM:  17    -0.961087148916E+01   -0.99604E-01    0.58228E+01 24241   0.483E-02    0.734E-03
RMM:  18    -0.943246814417E+01    0.17840E+00    0.60059E+01 24390   0.458E-02    0.632E-03
RMM:  19    -0.961226392895E+01   -0.17980E+00    0.58282E+01 24610   0.458E-02    0.377E-03
RMM:  20    -0.947685491261E+01    0.13541E+00    0.59640E+01 24337   0.452E-02    0.302E-03
RMM:  21    -0.959903788588E+01   -0.12218E+00    0.58430E+01 25744   0.448E-02    0.187E-03
RMM:  22    -0.947035891918E+01    0.12868E+00    0.59723E+01 27296   0.447E-02    0.141E-03
RMM:  23    -0.958503114063E+01   -0.11467E+00    0.58579E+01 27778   0.445E-02    0.128E-03
RMM:  24    -0.951058282741E+01    0.74448E-01    0.59324E+01 28191   0.445E-02    0.112E-03
RMM:  25    -0.957221330600E+01   -0.61630E-01    0.58709E+01 28099   0.445E-02    0.107E-03
RMM:  26    -0.949003777072E+01    0.82176E-01    0.59530E+01 28167   0.445E-02    0.818E-04
RMM:  27    -0.955308018610E+01   -0.63042E-01    0.58901E+01 28217   0.444E-02    0.795E-04
RMM:  28    -0.951153857147E+01    0.41542E-01    0.59315E+01 28261   0.445E-02    0.761E-04
 Linear response DOF=          51
 Linear response progress:
  Degree of freedom:   1/ 51
       N       E                     dE             d eps       ncg     rms          rms(c)
RMM:   1    -0.108941739972E+01   -0.10894E+01   -0.45684E+02 10754   0.562E+01
RMM:   2    -0.135802463923E+01   -0.26861E+00   -0.96748E-02 16754   0.398E-01    0.196E-01
RMM:   3    -0.135839159453E+01   -0.36696E-03   -0.12020E-03 20263   0.486E-02    0.175E-01
RMM:   4    -0.135805013180E+01    0.34146E-03   -0.16250E-04 19840   0.222E-02    0.130E-01
RMM:   5    -0.135745909223E+01    0.59104E-03   -0.48575E-04 18336   0.289E-02    0.442E-02
RMM:   6    -0.135747096236E+01   -0.11870E-04   -0.71956E-05 18650   0.166E-02    0.251E-02
RMM:   7    -0.135743360118E+01    0.37361E-04   -0.28784E-05 19310   0.759E-03    0.171E-02
RMM:   8    -0.135743566631E+01   -0.20651E-05   -0.72845E-06 17501   0.567E-03    0.155E-02
RMM:   9    -0.135750756922E+01   -0.71903E-04   -0.26278E-05 19902   0.637E-03    0.849E-03
RMM:  10    -0.135751087019E+01   -0.33010E-05   -0.27509E-06 18314   0.289E-03    0.656E-03
RMM:  11    -0.135754501136E+01   -0.34141E-04   -0.35155E-06 19432   0.268E-03    0.312E-03
RMM:  12    -0.135754705607E+01   -0.20447E-05   -0.17977E-06 18872   0.126E-03    0.272E-03
RMM:  13    -0.135754686843E+01    0.18764E-06   -0.25212E-06 19758   0.869E-04    0.161E-03
RMM:  14    -0.135754749493E+01   -0.62649E-06   -0.20188E-06 21007   0.590E-04    0.827E-04
RMM:  15    -0.135754769490E+01   -0.19998E-06   -0.22669E-06 20356   0.504E-04    0.512E-04
RMM:  16    -0.135754782212E+01   -0.12721E-06   -0.18780E-06 23370   0.348E-04    0.389E-04
RMM:  17    -0.135754819866E+01   -0.37654E-06   -0.24267E-06 23568   0.318E-04    0.202E-04
RMM:  18    -0.135754723577E+01    0.96289E-06   -0.18013E-06 23823   0.263E-04    0.151E-04
RMM:  19    -0.135754711350E+01    0.12227E-06   -0.24942E-06 23325   0.238E-04    0.919E-05
RMM:  20    -0.135754699402E+01    0.11948E-06   -0.15857E-06 24760   0.227E-04    0.773E-05
RMM:  21    -0.135754688475E+01    0.10927E-06   -0.19585E-06 24115   0.227E-04    0.369E-05
 Linear response progress:
  Degree of freedom:   2/ 51
       N       E                     dE             d eps       ncg     rms          rms(c)
RMM:   1    -0.104919900495E+01   -0.10492E+01   -0.44486E+02 10762   0.521E+01
RMM:   2    -0.131987064404E+01   -0.27067E+00   -0.10035E-01 16861   0.402E-01    0.120E-01
RMM:   3    -0.132045094212E+01   -0.58030E-03   -0.96301E-04 22983   0.437E-02    0.111E-01
RMM:   4    -0.132054553494E+01   -0.94593E-04   -0.82577E-05 22122   0.162E-02    0.943E-02
RMM:   5    -0.132083558071E+01   -0.29005E-03   -0.11772E-04 18069   0.163E-02    0.662E-02
RMM:   6    -0.132120432253E+01   -0.36874E-03   -0.73577E-05 16539   0.163E-02    0.153E-02
RMM:   7    -0.132125830488E+01   -0.53982E-04   -0.98661E-06 21363   0.473E-03    0.118E-02
RMM:   8    -0.132122440711E+01    0.33898E-04   -0.62511E-06 19941   0.365E-03    0.620E-03
RMM:   9    -0.132122305619E+01    0.13509E-05   -0.12004E-06 21648   0.162E-03    0.509E-03
RMM:  10    -0.132120873079E+01    0.14325E-04   -0.85462E-07 20437   0.112E-03    0.383E-03
RMM:  11    -0.132117760414E+01    0.31127E-04   -0.15483E-06 20408   0.145E-03    0.214E-03
RMM:  12    -0.132118138597E+01   -0.37818E-05   -0.54135E-07 19029   0.691E-04    0.133E-03
RMM:  13    -0.132117459410E+01    0.67919E-05   -0.37278E-07 21205   0.529E-04    0.809E-04
RMM:  14    -0.132117649733E+01   -0.19032E-05   -0.34344E-07 20925   0.351E-04    0.573E-04
RMM:  15    -0.132117848257E+01   -0.19852E-05   -0.27055E-07 21025   0.340E-04    0.305E-04
RMM:  16    -0.132117734322E+01    0.11394E-05   -0.31203E-07 22091   0.214E-04    0.241E-04
RMM:  17    -0.132117781872E+01   -0.47549E-06   -0.31533E-07 22824   0.200E-04    0.179E-04
RMM:  18    -0.132117749698E+01    0.32173E-06   -0.34557E-07 23256   0.172E-04    0.140E-04
RMM:  19    -0.132117809216E+01   -0.59518E-06   -0.45662E-07 23690   0.172E-04    0.612E-05
RMM:  20    -0.132117803464E+01    0.57516E-07   -0.38774E-07 23865   0.163E-04    0.573E-05
 Linear response progress:
  Degree of freedom:   3/ 51
       N       E                     dE             d eps       ncg     rms          rms(c)
RMM:   1    -0.105263348716E+01   -0.10526E+01   -0.44451E+02 10773   0.532E+01
RMM:   2    -0.132403443185E+01   -0.27140E+00   -0.10237E-01 16418   0.402E-01    0.143E-01
RMM:   3    -0.132465356475E+01   -0.61913E-03   -0.11981E-03 22202   0.482E-02    0.130E-01
RMM:   4    -0.132469245101E+01   -0.38886E-04   -0.13514E-04 20253   0.204E-02    0.112E-01
RMM:   5    -0.132479400595E+01   -0.10155E-03   -0.10470E-04 18941   0.152E-02    0.951E-02
RMM:   6    -0.132506969725E+01   -0.27569E-03   -0.85549E-05 15908   0.175E-02    0.268E-02
RMM:   7    -0.132518141603E+01   -0.11172E-03   -0.26364E-05 19205   0.731E-03    0.145E-02
RMM:   8    -0.132517828326E+01    0.31328E-05   -0.70262E-06 18731   0.438E-03    0.815E-03
RMM:   9    -0.132517960941E+01   -0.13262E-05   -0.34948E-06 21157   0.216E-03    0.636E-03
RMM:  10    -0.132517782954E+01    0.17799E-05   -0.14687E-06 18821   0.131E-03    0.498E-03
RMM:  11    -0.132517061642E+01    0.72131E-05   -0.36764E-06 19190   0.232E-03    0.305E-03
RMM:  12    -0.132517115601E+01   -0.53959E-06   -0.96758E-07 19140   0.108E-03    0.173E-03
RMM:  13    -0.132516765125E+01    0.35048E-05   -0.10197E-06 20927   0.668E-04    0.894E-04
RMM:  14    -0.132516750260E+01    0.14865E-06   -0.10644E-06 20365   0.396E-04    0.789E-04
RMM:  15    -0.132516611272E+01    0.13899E-05   -0.10898E-06 19438   0.476E-04    0.392E-04
RMM:  16    -0.132516584090E+01    0.27182E-06   -0.10735E-06 22393   0.249E-04    0.293E-04
RMM:  17    -0.132516583950E+01    0.14076E-08   -0.10581E-06 21930   0.222E-04    0.211E-04
RMM:  18    -0.132516567233E+01    0.16717E-06   -0.10462E-06 23338   0.197E-04    0.156E-04
RMM:  19    -0.132516593378E+01   -0.26145E-06   -0.10676E-06 23561   0.191E-04    0.827E-05
RMM:  20    -0.132516610605E+01   -0.17227E-06   -0.10709E-06 24377   0.182E-04    0.573E-05
 Linear response progress:
  Degree of freedom:   4/ 51
       N       E                     dE             d eps       ncg     rms          rms(c)
RMM:   1    -0.482127777407E+00   -0.48213E+00   -0.16711E-01 15761   0.916E-01
RMM:   2    -0.481373937018E+00    0.75384E-03   -0.10443E-02 18072   0.172E-01    0.101E-01
RMM:   3    -0.481366822272E+00    0.71147E-05   -0.56893E-04 19938   0.441E-02    0.886E-02
RMM:   4    -0.480983880272E+00    0.38294E-03   -0.28868E-04 21643   0.240E-02    0.719E-02
RMM:   5    -0.480846014921E+00    0.13787E-03   -0.14004E-04 22163   0.131E-02    0.664E-02
RMM:   6    -0.480555196990E+00    0.29082E-03   -0.14505E-04 17112   0.190E-02    0.328E-02
RMM:   7    -0.480406949997E+00    0.14825E-03   -0.11153E-04 19176   0.107E-02    0.211E-02
RMM:   8    -0.480388811736E+00    0.18138E-04   -0.59749E-05 17286   0.729E-03    0.134E-02
RMM:   9    -0.480367868429E+00    0.20943E-04   -0.52607E-05 19541   0.544E-03    0.981E-03
RMM:  10    -0.480369389588E+00   -0.15212E-05   -0.36749E-05 18298   0.287E-03    0.731E-03
RMM:  11    -0.480385066238E+00   -0.15677E-04   -0.40418E-05 19111   0.397E-03    0.445E-03
RMM:  12    -0.480382849729E+00    0.22165E-05   -0.33432E-05 19522   0.172E-03    0.328E-03
RMM:  13    -0.480384882659E+00   -0.20329E-05   -0.37004E-05 20687   0.100E-03    0.225E-03
RMM:  14    -0.480387379765E+00   -0.24971E-05   -0.33555E-05 20621   0.721E-04    0.178E-03
RMM:  15    -0.480388175739E+00   -0.79597E-06   -0.37282E-05 20912   0.765E-04    0.114E-03
RMM:  16    -0.480389950496E+00   -0.17748E-05   -0.37212E-05 21358   0.460E-04    0.753E-04
RMM:  17    -0.480390831387E+00   -0.88089E-06   -0.34353E-05 22729   0.427E-04    0.536E-04
RMM:  18    -0.480391721230E+00   -0.88984E-06   -0.36382E-05 23327   0.331E-04    0.406E-04
RMM:  19    -0.480392180579E+00   -0.45935E-06   -0.35327E-05 23048   0.314E-04    0.253E-04
RMM:  20    -0.480392542062E+00   -0.36148E-06   -0.36895E-05 24371   0.293E-04    0.188E-04
RMM:  21    -0.480392706654E+00   -0.16459E-06   -0.35316E-05 23594   0.287E-04    0.100E-04
 Linear response progress:
  Degree of freedom:   5/ 51
       N       E                     dE             d eps       ncg     rms          rms(c)
RMM:   1    -0.483216393675E+00   -0.48322E+00   -0.14034E-01 15496   0.965E-01
RMM:   2    -0.480515042488E+00    0.27014E-02   -0.10434E-02 18014   0.170E-01    0.992E-02
RMM:   3    -0.480659514146E+00   -0.14447E-03   -0.60578E-04 20340   0.508E-02    0.891E-02
RMM:   4    -0.480376012351E+00    0.28350E-03   -0.21629E-04 21095   0.226E-02    0.710E-02
RMM:   5    -0.480190385623E+00    0.18563E-03   -0.13421E-04 20478   0.155E-02    0.596E-02
RMM:   6    -0.479987140009E+00    0.20325E-03   -0.10496E-04 16822   0.187E-02    0.254E-02
RMM:   7    -0.479939266587E+00    0.47873E-04   -0.25722E-06 18830   0.793E-03    0.198E-02
RMM:   8    -0.479935440765E+00    0.38258E-05    0.23848E-05 16595   0.632E-03    0.125E-02
RMM:   9    -0.479931712252E+00    0.37285E-05    0.29660E-05 18565   0.429E-03    0.125E-02
RMM:  10    -0.479952088184E+00   -0.20376E-04    0.34867E-05 18976   0.362E-03    0.491E-03
RMM:  11    -0.479958892807E+00   -0.68046E-05    0.42817E-05 20464   0.183E-03    0.358E-03
RMM:  12    -0.479959885243E+00   -0.99244E-06    0.44623E-05 19309   0.102E-03    0.288E-03
RMM:  13    -0.479964802918E+00   -0.49177E-05    0.44333E-05 20137   0.775E-04    0.198E-03
RMM:  14    -0.479966384015E+00   -0.15811E-05    0.44280E-05 20485   0.478E-04    0.147E-03
RMM:  15    -0.479967764707E+00   -0.13807E-05    0.43165E-05 21811   0.569E-04    0.961E-04
RMM:  16    -0.479969257222E+00   -0.14925E-05    0.43105E-05 20168   0.462E-04    0.595E-04
RMM:  17    -0.479969628110E+00   -0.37089E-06    0.43323E-05 21962   0.297E-04    0.487E-04
RMM:  18    -0.479969913836E+00   -0.28573E-06    0.42708E-05 23220   0.235E-04    0.355E-04
RMM:  19    -0.479970577396E+00   -0.66356E-06    0.43272E-05 23591   0.213E-04    0.194E-04
RMM:  20    -0.479970920843E+00   -0.34345E-06    0.42794E-05 23561   0.203E-04    0.146E-04
RMM:  21    -0.479970950400E+00   -0.29558E-07    0.43203E-05 24476   0.197E-04    0.673E-05
 Linear response progress:
  Degree of freedom:   6/ 51
       N       E                     dE             d eps       ncg     rms          rms(c)
RMM:   1    -0.485925708318E+00   -0.48593E+00   -0.12474E-01 15221   0.970E-01
RMM:   2    -0.483327466293E+00    0.25982E-02   -0.12987E-02 17673   0.171E-01    0.104E-01
RMM:   3    -0.483267675887E+00    0.59790E-04   -0.67509E-04 19407   0.496E-02    0.949E-02
RMM:   4    -0.482883397471E+00    0.38428E-03   -0.25886E-04 21513   0.239E-02    0.808E-02
RMM:   5    -0.482675300558E+00    0.20810E-03   -0.21619E-04 21017   0.179E-02    0.683E-02
RMM:   6    -0.482432419239E+00    0.24288E-03   -0.16587E-04 17993   0.208E-02    0.343E-02
RMM:   7    -0.482387038708E+00    0.45381E-04   -0.23327E-05 19928   0.890E-03    0.279E-02
RMM:   8    -0.482362076186E+00    0.24963E-04   -0.21627E-05 16234   0.897E-03    0.165E-02
RMM:   9    -0.482341043964E+00    0.21032E-04   -0.20175E-05 19573   0.535E-03    0.136E-02
RMM:  10    -0.482349528763E+00   -0.84848E-05   -0.37435E-08 19174   0.312E-03    0.963E-03
RMM:  11    -0.482363281152E+00   -0.13752E-04   -0.84214E-06 19393   0.322E-03    0.629E-03
RMM:  12    -0.482368112700E+00   -0.48315E-05   -0.21079E-07 18650   0.187E-03    0.406E-03
RMM:  13    -0.482375966375E+00   -0.78537E-05   -0.22244E-06 20769   0.132E-03    0.256E-03
RMM:  14    -0.482378409091E+00   -0.24427E-05   -0.28524E-07 19315   0.827E-04    0.177E-03
RMM:  15    -0.482382126028E+00   -0.37169E-05    0.91250E-08 19904   0.676E-04    0.115E-03
RMM:  16    -0.482383070407E+00   -0.94438E-06   -0.14670E-06 20710   0.453E-04    0.885E-04
RMM:  17    -0.482384715509E+00   -0.16451E-05    0.21999E-07 21606   0.409E-04    0.607E-04
RMM:  18    -0.482385895068E+00   -0.11796E-05   -0.19598E-06 22151   0.330E-04    0.373E-04
RMM:  19    -0.482386574373E+00   -0.67931E-06   -0.87886E-07 22772   0.319E-04    0.209E-04
RMM:  20    -0.482387065073E+00   -0.49070E-06   -0.27022E-06 23910   0.264E-04    0.162E-04
RMM:  21    -0.482387023156E+00    0.41917E-07   -0.54461E-07 23622   0.263E-04    0.935E-05
RMM:  22    -0.482387395997E+00   -0.37284E-06   -0.19877E-06 24743   0.247E-04    0.642E-05
 Linear response progress:
  Degree of freedom:   7/ 51
       N       E                     dE             d eps       ncg     rms          rms(c)
RMM:   1    -0.484557748347E+00   -0.48456E+00   -0.16428E-01 17833   0.834E-01
RMM:   2    -0.481908978296E+00    0.26488E-02   -0.10119E-02 17708   0.158E-01    0.104E-01
RMM:   3    -0.481975527988E+00   -0.66550E-04   -0.66739E-04 18818   0.466E-02    0.925E-02
RMM:   4    -0.481669003259E+00    0.30652E-03   -0.12878E-05 20742   0.228E-02    0.798E-02
RMM:   5    -0.481465733382E+00    0.20327E-03    0.34610E-04 21122   0.161E-02    0.696E-02
RMM:   6    -0.481132677427E+00    0.33306E-03    0.17208E-04 16560   0.233E-02    0.302E-02
RMM:   7    -0.481081641070E+00    0.51036E-04    0.45995E-04 19165   0.892E-03    0.238E-02
RMM:   8    -0.481073296003E+00    0.83451E-05    0.55070E-04 16355   0.727E-03    0.155E-02
RMM:   9    -0.481034658730E+00    0.38637E-04    0.38757E-04 19089   0.777E-03    0.107E-02
RMM:  10    -0.481033991752E+00    0.66698E-06    0.39453E-04 19001   0.285E-03    0.928E-03
RMM:  11    -0.481053516797E+00   -0.19525E-04    0.42356E-04 18601   0.406E-03    0.606E-03
RMM:  12    -0.481049855246E+00    0.36616E-05    0.41570E-04 17223   0.207E-03    0.360E-03
RMM:  13    -0.481054910251E+00   -0.50550E-05    0.42672E-04 20106   0.118E-03    0.230E-03
RMM:  14    -0.481058000132E+00   -0.30899E-05    0.42393E-04 20830   0.687E-04    0.186E-03
RMM:  15    -0.481060974982E+00   -0.29748E-05    0.42741E-04 21686   0.708E-04    0.112E-03
RMM:  16    -0.481061950833E+00   -0.97585E-06    0.42992E-04 19450   0.627E-04    0.787E-04
RMM:  17    -0.481063555621E+00   -0.16048E-05    0.42846E-04 21313   0.459E-04    0.496E-04
RMM:  18    -0.481063980864E+00   -0.42524E-06    0.42790E-04 22689   0.362E-04    0.370E-04
RMM:  19    -0.481064581081E+00   -0.60022E-06    0.42961E-04 22827   0.326E-04    0.205E-04
RMM:  20    -0.481064942287E+00   -0.36121E-06    0.42816E-04 23238   0.307E-04    0.163E-04
RMM:  21    -0.481065070849E+00   -0.12856E-06    0.43009E-04 24336   0.293E-04    0.108E-04
RMM:  22    -0.481065218990E+00   -0.14814E-06    0.42896E-04 25904   0.284E-04    0.591E-05
 Linear response progress:
  Degree of freedom:   8/ 51
       N       E                     dE             d eps       ncg     rms          rms(c)
RMM:   1    -0.483904516529E+00   -0.48390E+00   -0.15708E-01 17052   0.833E-01
RMM:   2    -0.476017113366E+00    0.78874E-02    0.34934E-02 17514   0.155E-01    0.104E-01
RMM:   3    -0.480624494350E+00   -0.46074E-02   -0.32449E-04 18764   0.490E-02    0.945E-02
RMM:   4    -0.480427207311E+00    0.19729E-03   -0.12141E-04 19434   0.217E-02    0.785E-02
RMM:   5    -0.480099918893E+00    0.32729E-03   -0.27369E-04 18295   0.222E-02    0.516E-02
RMM:   6    -0.479985317719E+00    0.11460E-03   -0.90494E-05 17399   0.148E-02    0.262E-02
RMM:   7    -0.479961715075E+00    0.23603E-04   -0.11834E-05 18409   0.746E-03    0.203E-02
RMM:   8    -0.479962081440E+00   -0.36636E-06    0.70176E-06 17248   0.469E-03    0.162E-02
RMM:   9    -0.479969388168E+00   -0.73067E-05   -0.19938E-05 18447   0.507E-03    0.114E-02
RMM:  10    -0.479975150481E+00   -0.57623E-05    0.10913E-06 18861   0.266E-03    0.639E-03
RMM:  11    -0.479994665418E+00   -0.19515E-04   -0.63126E-06 19144   0.248E-03    0.370E-03
RMM:  12    -0.479993469959E+00    0.11955E-05   -0.40446E-06 19994   0.118E-03    0.311E-03
RMM:  13    -0.479996381958E+00   -0.29120E-05    0.24831E-07 19729   0.964E-04    0.181E-03
RMM:  14    -0.479998639355E+00   -0.22574E-05   -0.15785E-07 20426   0.661E-04    0.142E-03
RMM:  15    -0.480000391741E+00   -0.17524E-05   -0.56806E-07 19166   0.428E-04    0.761E-04
RMM:  16    -0.480000645019E+00   -0.25328E-06    0.58337E-07 20787   0.377E-04    0.659E-04
RMM:  17    -0.480001275735E+00   -0.63072E-06    0.92857E-07 20489   0.287E-04    0.380E-04
RMM:  18    -0.480002165456E+00   -0.88972E-06    0.28602E-07 21660   0.229E-04    0.249E-04
RMM:  19    -0.480002582270E+00   -0.41681E-06    0.32259E-07 22802   0.194E-04    0.136E-04
RMM:  20    -0.480002527831E+00    0.54439E-07    0.39867E-07 24377   0.164E-04    0.111E-04
RMM:  21    -0.480002614574E+00   -0.86744E-07    0.32549E-07 24074   0.156E-04    0.611E-05
RMM:  22    -0.480002614013E+00    0.56122E-09    0.35060E-07 24797   0.153E-04    0.415E-05
 Linear response progress:
  Degree of freedom:   9/ 51
       N       E                     dE             d eps       ncg     rms          rms(c)
RMM:   1    -0.483182872516E+00   -0.48318E+00   -0.16832E-01 16686   0.817E-01
RMM:   2    -0.482011162045E+00    0.11717E-02   -0.99973E-03 17609   0.143E-01    0.101E-01
RMM:   3    -0.481969721648E+00    0.41440E-04   -0.48201E-04 18761   0.404E-02    0.914E-02
RMM:   4    -0.481563978827E+00    0.40574E-03   -0.28779E-04 20772   0.231E-02    0.755E-02
RMM:   5    -0.481389409943E+00    0.17457E-03   -0.13022E-04 20405   0.145E-02    0.676E-02
RMM:   6    -0.481091460060E+00    0.29795E-03   -0.17499E-04 17067   0.208E-02    0.322E-02
RMM:   7    -0.481009583172E+00    0.81877E-04   -0.43568E-05 19130   0.915E-03    0.229E-02
RMM:   8    -0.480988024861E+00    0.21558E-04   -0.13528E-05 17539   0.667E-03    0.152E-02
RMM:   9    -0.480982564835E+00    0.54600E-05   -0.32251E-05 19478   0.683E-03    0.129E-02
RMM:  10    -0.480982187577E+00    0.37726E-06   -0.56635E-06 17849   0.411E-03    0.751E-03
RMM:  11    -0.480997460209E+00   -0.15273E-04   -0.87103E-06 19367   0.342E-03    0.587E-03
RMM:  12    -0.480992835668E+00    0.46245E-05   -0.44247E-06 17742   0.231E-03    0.385E-03
RMM:  13    -0.480998862354E+00   -0.60267E-05   -0.31501E-06 20008   0.168E-03    0.238E-03
RMM:  14    -0.481001153797E+00   -0.22914E-05   -0.34288E-06 19960   0.837E-04    0.225E-03
RMM:  15    -0.481001017865E+00    0.13593E-06   -0.23733E-06 20519   0.888E-04    0.107E-03
RMM:  16    -0.481001917316E+00   -0.89945E-06   -0.18895E-06 21190   0.429E-04    0.921E-04
RMM:  17    -0.481003063684E+00   -0.11464E-05   -0.28834E-06 21903   0.335E-04    0.614E-04
RMM:  18    -0.481004229110E+00   -0.11654E-05   -0.24269E-06 21369   0.348E-04    0.411E-04
RMM:  19    -0.481004764167E+00   -0.53506E-06   -0.23662E-06 22289   0.273E-04    0.231E-04
RMM:  20    -0.481004972175E+00   -0.20801E-06   -0.26060E-06 23576   0.241E-04    0.229E-04
RMM:  21    -0.481005071650E+00   -0.99475E-07   -0.28433E-06 23279   0.249E-04    0.104E-04
 Linear response progress:
  Degree of freedom:  10/ 51
       N       E                     dE             d eps       ncg     rms          rms(c)
RMM:   1    -0.378428198265E+00   -0.37843E+00    0.34616E-01 28126   0.599E-01
RMM:   2    -0.360053049841E+00    0.18375E-01   -0.11180E-02 17067   0.204E-01    0.229E-01
RMM:   3    -0.360214887398E+00   -0.16184E-03   -0.13355E-03 19014   0.658E-02    0.218E-01
RMM:   4    -0.360586286053E+00   -0.37140E-03   -0.13883E-03 17756   0.550E-02    0.124E-01
RMM:   5    -0.361252300182E+00   -0.66601E-03   -0.71675E-04 19017   0.316E-02    0.854E-02
RMM:   6    -0.361187958215E+00    0.64342E-04   -0.17110E-04 17639   0.246E-02    0.451E-02
RMM:   7    -0.361539067728E+00   -0.35111E-03   -0.63678E-05 15963   0.131E-02    0.334E-02
RMM:   8    -0.361415182320E+00    0.12389E-03   -0.19292E-05 17880   0.917E-03    0.207E-02
RMM:   9    -0.361271671900E+00    0.14351E-03   -0.74345E-05 19849   0.104E-02    0.155E-02
RMM:  10    -0.361265735194E+00    0.59367E-05    0.66197E-06 18245   0.458E-03    0.617E-03
RMM:  11    -0.361236829107E+00    0.28906E-04    0.12599E-05 19834   0.286E-03    0.471E-03
RMM:  12    -0.361246196753E+00   -0.93676E-05    0.12056E-05 18476   0.203E-03    0.232E-03
RMM:  13    -0.361224983003E+00    0.21214E-04    0.12155E-05 21194   0.131E-03    0.208E-03
RMM:  14    -0.361228968010E+00   -0.39850E-05    0.13172E-05 21037   0.805E-04    0.176E-03
RMM:  15    -0.361227674892E+00    0.12931E-05    0.12992E-05 21459   0.689E-04    0.816E-04
RMM:  16    -0.361229165004E+00   -0.14901E-05    0.12232E-05 21473   0.464E-04    0.650E-04
RMM:  17    -0.361229874314E+00   -0.70931E-06    0.12284E-05 22666   0.499E-04    0.491E-04
RMM:  18    -0.361230324111E+00   -0.44980E-06    0.12320E-05 22976   0.387E-04    0.273E-04
RMM:  19    -0.361231253924E+00   -0.92981E-06    0.11649E-05 23603   0.358E-04    0.176E-04
RMM:  20    -0.361231251814E+00    0.21095E-08    0.12278E-05 24533   0.333E-04    0.126E-04
RMM:  21    -0.361231422564E+00   -0.17075E-06    0.12004E-05 24336   0.334E-04    0.858E-05
 Linear response progress:
  Degree of freedom:  11/ 51
       N       E                     dE             d eps       ncg     rms          rms(c)
RMM:   1    -0.373694123009E+00   -0.37369E+00    0.30692E-01 27180   0.557E-01
RMM:   2    -0.359258344496E+00    0.14436E-01   -0.12102E-02 17244   0.200E-01    0.151E-01
RMM:   3    -0.359194797793E+00    0.63547E-04   -0.16956E-03 19073   0.678E-02    0.144E-01
RMM:   4    -0.359505973546E+00   -0.31118E-03   -0.99646E-04 18077   0.436E-02    0.810E-02
RMM:   5    -0.360241578599E+00   -0.73561E-03   -0.74188E-04 18336   0.278E-02    0.481E-02
RMM:   6    -0.360189497819E+00    0.52081E-04   -0.50450E-05 18712   0.136E-02    0.335E-02
RMM:   7    -0.360435127831E+00   -0.24563E-03   -0.54256E-05 18074   0.926E-03    0.207E-02
RMM:   8    -0.360449004319E+00   -0.13876E-04   -0.60428E-06 17380   0.452E-03    0.188E-02
RMM:   9    -0.360342575208E+00    0.10643E-03   -0.41010E-05 17565   0.723E-03    0.103E-02
RMM:  10    -0.360339093519E+00    0.34817E-05   -0.90806E-06 18155   0.358E-03    0.779E-03
RMM:  11    -0.360335338354E+00    0.37552E-05   -0.29527E-06 18295   0.236E-03    0.395E-03
RMM:  12    -0.360319112745E+00    0.16226E-04   -0.22759E-06 19821   0.194E-03    0.290E-03
RMM:  13    -0.360315519422E+00    0.35933E-05   -0.11622E-06 19537   0.107E-03    0.148E-03
RMM:  14    -0.360309976898E+00    0.55425E-05   -0.89562E-07 20982   0.741E-04    0.104E-03
RMM:  15    -0.360309597183E+00    0.37972E-06   -0.84788E-07 20436   0.730E-04    0.848E-04
RMM:  16    -0.360310727876E+00   -0.11307E-05   -0.83697E-07 23404   0.455E-04    0.623E-04
RMM:  17    -0.360310136700E+00    0.59118E-06   -0.81387E-07 22036   0.369E-04    0.336E-04
RMM:  18    -0.360311074975E+00   -0.93827E-06   -0.79295E-07 23237   0.333E-04    0.248E-04
RMM:  19    -0.360310757686E+00    0.31729E-06   -0.83733E-07 23543   0.305E-04    0.125E-04
RMM:  20    -0.360311015328E+00   -0.25764E-06   -0.81205E-07 23778   0.300E-04    0.106E-04
RMM:  21    -0.360311050757E+00   -0.35430E-07   -0.82245E-07 23670   0.294E-04    0.524E-05
 Linear response progress:
  Degree of freedom:  12/ 51
       N       E                     dE             d eps       ncg     rms          rms(c)
RMM:   1    -0.372182014541E+00   -0.37218E+00    0.58849E-01 27806   0.536E-01
RMM:   2    -0.359566211513E+00    0.12616E-01   -0.12149E-02 18002   0.188E-01    0.280E-01
RMM:   3    -0.359505227525E+00    0.60984E-04   -0.13435E-03 18061   0.639E-02    0.259E-01
RMM:   4    -0.359594539122E+00   -0.89312E-04   -0.46438E-03 19867   0.669E-02    0.123E-01
RMM:   5    -0.359299853734E+00    0.29469E-03   -0.23870E-04 18838   0.305E-02    0.117E-01
RMM:   6    -0.359738467090E+00   -0.43861E-03   -0.73955E-04 17674   0.286E-02    0.731E-02
RMM:   7    -0.360182100611E+00   -0.44363E-03   -0.49645E-04 18672   0.228E-02    0.401E-02
RMM:   8    -0.360011206502E+00    0.17089E-03   -0.63497E-05 17493   0.130E-02    0.202E-02
RMM:   9    -0.360000853327E+00    0.10353E-04   -0.51822E-05 18404   0.769E-03    0.226E-02
RMM:  10    -0.359975811190E+00    0.25042E-04   -0.10250E-05 15882   0.551E-03    0.103E-02
RMM:  11    -0.359905785502E+00    0.70026E-04   -0.12469E-05 18115   0.446E-03    0.705E-03
RMM:  12    -0.359910907232E+00   -0.51217E-05   -0.23884E-06 18526   0.258E-03    0.409E-03
RMM:  13    -0.359904753048E+00    0.61542E-05   -0.12827E-06 20446   0.159E-03    0.275E-03
RMM:  14    -0.359905408243E+00   -0.65520E-06   -0.88754E-07 19575   0.976E-04    0.185E-03
RMM:  15    -0.359904053012E+00    0.13552E-05   -0.16730E-06 20844   0.822E-04    0.103E-03
RMM:  16    -0.359903300268E+00    0.75274E-06   -0.67283E-07 21193   0.472E-04    0.884E-04
RMM:  17    -0.359903880671E+00   -0.58040E-06   -0.22015E-06 22187   0.449E-04    0.452E-04
RMM:  18    -0.359903299442E+00    0.58123E-06   -0.43578E-07 23108   0.338E-04    0.285E-04
RMM:  19    -0.359903626476E+00   -0.32703E-06   -0.23382E-06 23102   0.324E-04    0.198E-04
RMM:  20    -0.359903231600E+00    0.39488E-06   -0.74976E-07 23792   0.308E-04    0.105E-04
 Linear response progress:
  Degree of freedom:  13/ 51
       N       E                     dE             d eps       ncg     rms          rms(c)
RMM:   1    -0.378744417673E+00   -0.37874E+00    0.34901E-01 28008   0.605E-01
RMM:   2    -0.360603297523E+00    0.18141E-01   -0.12178E-02 16742   0.217E-01    0.242E-01
RMM:   3    -0.360806065193E+00   -0.20277E-03   -0.14055E-03 18797   0.687E-02    0.232E-01
RMM:   4    -0.361355530032E+00   -0.54946E-03   -0.16735E-03 17176   0.624E-02    0.121E-01
RMM:   5    -0.361984476750E+00   -0.62895E-03   -0.57896E-04 19121   0.297E-02    0.852E-02
RMM:   6    -0.361947607495E+00    0.36869E-04   -0.20818E-04 17253   0.267E-02    0.401E-02
RMM:   7    -0.362197985812E+00   -0.25038E-03   -0.44513E-05 16035   0.124E-02    0.318E-02
RMM:   8    -0.362053914067E+00    0.14407E-03   -0.36403E-05 17178   0.991E-03    0.199E-02
RMM:   9    -0.361948108881E+00    0.10581E-03   -0.63273E-05 19377   0.977E-03    0.142E-02
RMM:  10    -0.361929828958E+00    0.18280E-04   -0.55681E-06 18314   0.438E-03    0.621E-03
RMM:  11    -0.361897499991E+00    0.32329E-04   -0.30479E-06 19810   0.271E-03    0.433E-03
RMM:  12    -0.361902245179E+00   -0.47452E-05    0.96880E-09 17896   0.195E-03    0.233E-03
RMM:  13    -0.361884770369E+00    0.17475E-04    0.15637E-07 21459   0.117E-03    0.170E-03
RMM:  14    -0.361888384468E+00   -0.36141E-05    0.44197E-07 21640   0.720E-04    0.130E-03
RMM:  15    -0.361886697020E+00    0.16874E-05    0.20296E-07 21763   0.602E-04    0.946E-04
RMM:  16    -0.361888213615E+00   -0.15166E-05    0.54070E-07 21730   0.461E-04    0.615E-04
RMM:  17    -0.361889195487E+00   -0.98187E-06    0.30963E-07 22759   0.458E-04    0.445E-04
RMM:  18    -0.361889859362E+00   -0.66388E-06    0.76641E-07 22917   0.361E-04    0.249E-04
RMM:  19    -0.361890341480E+00   -0.48212E-06    0.41615E-07 23840   0.336E-04    0.169E-04
RMM:  20    -0.361890425360E+00   -0.83880E-07    0.59408E-07 24669   0.315E-04    0.134E-04
RMM:  21    -0.361890497035E+00   -0.71674E-07    0.45602E-07 24529   0.311E-04    0.833E-05
 Linear response progress:
  Degree of freedom:  14/ 51
       N       E                     dE             d eps       ncg     rms          rms(c)
RMM:   1    -0.374417805919E+00   -0.37442E+00    0.31745E-01 26780   0.564E-01
RMM:   2    -0.359457017717E+00    0.14961E-01   -0.11186E-02 17223   0.204E-01    0.151E-01
RMM:   3    -0.359460325296E+00   -0.33076E-05   -0.15896E-03 18957   0.692E-02    0.144E-01
RMM:   4    -0.359872359627E+00   -0.41203E-03   -0.10833E-03 18147   0.447E-02    0.754E-02
RMM:   5    -0.360587833297E+00   -0.71547E-03   -0.62723E-04 18657   0.267E-02    0.463E-02
RMM:   6    -0.360532779413E+00    0.55054E-04   -0.48184E-05 18954   0.130E-02    0.328E-02
RMM:   7    -0.360757390557E+00   -0.22461E-03   -0.48195E-05 18098   0.899E-03    0.206E-02
RMM:   8    -0.360776488389E+00   -0.19098E-04   -0.48455E-06 17334   0.463E-03    0.185E-02
RMM:   9    -0.360662905353E+00    0.11358E-03   -0.43338E-05 17858   0.773E-03    0.986E-03
RMM:  10    -0.360668513717E+00   -0.56084E-05   -0.69459E-06 17893   0.376E-03    0.720E-03
RMM:  11    -0.360665005935E+00    0.35078E-05   -0.20875E-06 18589   0.215E-03    0.400E-03
RMM:  12    -0.360647599754E+00    0.17406E-04   -0.21167E-06 19516   0.208E-03    0.289E-03
RMM:  13    -0.360644233205E+00    0.33665E-05   -0.70950E-07 19427   0.111E-03    0.145E-03
RMM:  14    -0.360643139300E+00    0.10939E-05   -0.34167E-07 20904   0.772E-04    0.104E-03
RMM:  15    -0.360639914588E+00    0.32247E-05   -0.18080E-07 19986   0.749E-04    0.811E-04
RMM:  16    -0.360641626791E+00   -0.17122E-05   -0.15731E-07 23371   0.438E-04    0.554E-04
RMM:  17    -0.360640856827E+00    0.76996E-06   -0.15318E-07 22096   0.336E-04    0.313E-04
RMM:  18    -0.360641226282E+00   -0.36945E-06   -0.16109E-07 23257   0.306E-04    0.254E-04
RMM:  19    -0.360641387360E+00   -0.16108E-06   -0.15541E-07 23303   0.283E-04    0.120E-04
RMM:  20    -0.360641580962E+00   -0.19360E-06   -0.12840E-07 23584   0.275E-04    0.114E-04
RMM:  21    -0.360641622108E+00   -0.41146E-07   -0.15011E-07 23336   0.265E-04    0.465E-05
 Linear response progress:
  Degree of freedom:  15/ 51
       N       E                     dE             d eps       ncg     rms          rms(c)
RMM:   1    -0.372260032799E+00   -0.37226E+00    0.61532E-01 28058   0.523E-01
RMM:   2    -0.359389594693E+00    0.12870E-01   -0.11972E-02 17738   0.178E-01    0.301E-01
RMM:   3    -0.359269705641E+00    0.11989E-03   -0.11907E-03 17765   0.609E-02    0.279E-01
RMM:   4    -0.359179813880E+00    0.89892E-04   -0.48225E-03 19685   0.676E-02    0.136E-01
RMM:   5    -0.358927816008E+00    0.25200E-03   -0.22039E-04 18431   0.306E-02    0.126E-01
RMM:   6    -0.359328722720E+00   -0.40091E-03   -0.49295E-04 16527   0.255E-02    0.642E-02
RMM:   7    -0.359820681117E+00   -0.49196E-03   -0.34171E-04 17435   0.195E-02    0.439E-02
RMM:   8    -0.359612914788E+00    0.20777E-03   -0.12348E-04 17278   0.146E-02    0.228E-02
RMM:   9    -0.359631533103E+00   -0.18618E-04   -0.42160E-05 18292   0.701E-03    0.261E-02
RMM:  10    -0.359576424017E+00    0.55109E-04   -0.25144E-05 16992   0.590E-03    0.946E-03
RMM:  11    -0.359543034781E+00    0.33389E-04   -0.93038E-06 17942   0.321E-03    0.618E-03
RMM:  12    -0.359534793413E+00    0.82414E-05   -0.45417E-06 18657   0.254E-03    0.267E-03
RMM:  13    -0.359523666409E+00    0.11127E-04   -0.25317E-06 20890   0.133E-03    0.273E-03
RMM:  14    -0.359521435483E+00    0.22309E-05   -0.17173E-06 19835   0.941E-04    0.156E-03
RMM:  15    -0.359519383389E+00    0.20521E-05   -0.15652E-06 21861   0.671E-04    0.119E-03
RMM:  16    -0.359520035278E+00   -0.65189E-06   -0.15711E-06 20950   0.469E-04    0.882E-04
RMM:  17    -0.359519562979E+00    0.47230E-06   -0.17261E-06 23098   0.421E-04    0.392E-04
RMM:  18    -0.359519297833E+00    0.26515E-06   -0.16122E-06 23162   0.323E-04    0.236E-04
RMM:  19    -0.359519511056E+00   -0.21322E-06   -0.16010E-06 24032   0.288E-04    0.186E-04
RMM:  20    -0.359519136080E+00    0.37498E-06   -0.16489E-06 22913   0.284E-04    0.896E-05
RMM:  21    -0.359519474220E+00   -0.33814E-06   -0.16445E-06 24164   0.273E-04    0.653E-05
 Linear response progress:
  Degree of freedom:  16/ 51
       N       E                     dE             d eps       ncg     rms          rms(c)
RMM:   1    -0.386565580592E+00   -0.38657E+00    0.21533E-01 26056   0.534E-01
RMM:   2    -0.361404373758E+00    0.25161E-01   -0.11888E-02 16468   0.177E-01    0.172E-01
RMM:   3    -0.361610371149E+00   -0.20600E-03   -0.16787E-03 17887   0.659E-02    0.163E-01
RMM:   4    -0.361942087709E+00   -0.33172E-03   -0.11096E-03 18127   0.386E-02    0.918E-02
RMM:   5    -0.362542835242E+00   -0.60075E-03   -0.66845E-04 18548   0.251E-02    0.661E-02
RMM:   6    -0.362511985378E+00    0.30850E-04   -0.74770E-05 18193   0.142E-02    0.497E-02
RMM:   7    -0.362972927669E+00   -0.46094E-03   -0.10062E-04 16463   0.105E-02    0.297E-02
RMM:   8    -0.362940675504E+00    0.32252E-04    0.30780E-06 17330   0.558E-03    0.235E-02
RMM:   9    -0.362788118768E+00    0.15256E-03   -0.16863E-04 19399   0.115E-02    0.169E-02
RMM:  10    -0.362801937899E+00   -0.13819E-04   -0.31112E-06 17483   0.418E-03    0.113E-02
RMM:  11    -0.362760035712E+00    0.41902E-04   -0.17039E-06 20223   0.286E-03    0.536E-03
RMM:  12    -0.362771477898E+00   -0.11442E-04    0.16307E-08 18698   0.186E-03    0.343E-03
RMM:  13    -0.362752098280E+00    0.19380E-04   -0.10117E-06 18914   0.154E-03    0.163E-03
RMM:  14    -0.362752530007E+00   -0.43173E-06    0.23372E-06 20064   0.899E-04    0.174E-03
RMM:  15    -0.362751097704E+00    0.14323E-05    0.18351E-06 21074   0.568E-04    0.810E-04
RMM:  16    -0.362750971835E+00    0.12587E-06    0.18683E-06 23145   0.398E-04    0.599E-04
RMM:  17    -0.362749195438E+00    0.17764E-05    0.27224E-06 21787   0.398E-04    0.304E-04
RMM:  18    -0.362750083407E+00   -0.88797E-06    0.22959E-06 23943   0.307E-04    0.231E-04
RMM:  19    -0.362749273073E+00    0.81033E-06    0.23214E-06 23047   0.284E-04    0.136E-04
RMM:  20    -0.362749437295E+00   -0.16422E-06    0.23762E-06 24848   0.265E-04    0.100E-04
RMM:  21    -0.362749036272E+00    0.40102E-06    0.23843E-06 24351   0.264E-04    0.475E-05
 Linear response progress:
  Degree of freedom:  17/ 51
       N       E                     dE             d eps       ncg     rms          rms(c)
RMM:   1    -0.376428228807E+00   -0.37643E+00    0.38657E-01 27285   0.529E-01
RMM:   2    -0.357455398740E+00    0.18973E-01   -0.15861E-02 18003   0.194E-01    0.294E-01
RMM:   3    -0.357468678373E+00   -0.13280E-04   -0.18083E-03 17971   0.674E-02    0.267E-01
RMM:   4    -0.357607455028E+00   -0.13878E-03   -0.45033E-03 18737   0.596E-02    0.127E-01
RMM:   5    -0.357648534872E+00   -0.41080E-04   -0.26943E-04 18836   0.276E-02    0.117E-01
RMM:   6    -0.358021961266E+00   -0.37343E-03   -0.89838E-04 16382   0.294E-02    0.777E-02
RMM:   7    -0.358477075475E+00   -0.45511E-03   -0.51509E-04 17527   0.203E-02    0.372E-02
RMM:   8    -0.358406456121E+00    0.70619E-04   -0.29671E-05 18246   0.919E-03    0.294E-02
RMM:   9    -0.358295737418E+00    0.11072E-03   -0.11534E-04 17978   0.904E-03    0.166E-02
RMM:  10    -0.358292541176E+00    0.31962E-05   -0.60987E-06 16129   0.442E-03    0.992E-03
RMM:  11    -0.358217622261E+00    0.74919E-04   -0.26796E-05 18800   0.527E-03    0.677E-03
RMM:  12    -0.358217653850E+00   -0.31589E-07   -0.10542E-06 16949   0.220E-03    0.390E-03
RMM:  13    -0.358215927890E+00    0.17260E-05   -0.10548E-06 19513   0.137E-03    0.356E-03
RMM:  14    -0.358215357332E+00    0.57056E-06   -0.12015E-07 18929   0.785E-04    0.230E-03
RMM:  15    -0.358215558801E+00   -0.20147E-06   -0.26394E-07 20172   0.747E-04    0.935E-04
RMM:  16    -0.358214281555E+00    0.12772E-05    0.10784E-07 20936   0.374E-04    0.800E-04
RMM:  17    -0.358214617036E+00   -0.33548E-06    0.12888E-07 22393   0.379E-04    0.429E-04
RMM:  18    -0.358212531579E+00    0.20855E-05    0.11079E-07 22821   0.290E-04    0.230E-04
RMM:  19    -0.358213145646E+00   -0.61407E-06    0.14205E-07 23263   0.277E-04    0.137E-04
RMM:  20    -0.358212907220E+00    0.23843E-06    0.10321E-07 24589   0.254E-04    0.993E-05
RMM:  21    -0.358213033367E+00   -0.12615E-06    0.15018E-07 23802   0.253E-04    0.730E-05
 Linear response progress:
  Degree of freedom:  18/ 51
       N       E                     dE             d eps       ncg     rms          rms(c)
RMM:   1    -0.378958143025E+00   -0.37896E+00    0.44383E-01 27168   0.577E-01
RMM:   2    -0.358323938918E+00    0.20634E-01   -0.16882E-02 17706   0.206E-01    0.273E-01
RMM:   3    -0.358450730141E+00   -0.12679E-03   -0.24341E-03 17521   0.787E-02    0.254E-01
RMM:   4    -0.358266227885E+00    0.18450E-03   -0.25572E-03 19666   0.572E-02    0.146E-01
RMM:   5    -0.358507144609E+00   -0.24092E-03   -0.53855E-04 19543   0.278E-02    0.121E-01
RMM:   6    -0.358966901392E+00   -0.45976E-03   -0.78287E-04 16809   0.315E-02    0.510E-02
RMM:   7    -0.359280864848E+00   -0.31396E-03   -0.19531E-04 17829   0.149E-02    0.356E-02
RMM:   8    -0.359227798363E+00    0.53066E-04   -0.29771E-05 18234   0.819E-03    0.317E-02
RMM:   9    -0.359069200428E+00    0.15860E-03   -0.16477E-04 17854   0.114E-02    0.188E-02
RMM:  10    -0.359053207285E+00    0.15993E-04   -0.10462E-05 16048   0.585E-03    0.102E-02
RMM:  11    -0.358984836701E+00    0.68371E-04   -0.21918E-05 19842   0.461E-03    0.710E-03
RMM:  12    -0.358990655977E+00   -0.58193E-05   -0.14081E-06 15553   0.269E-03    0.395E-03
RMM:  13    -0.358969180298E+00    0.21476E-04   -0.31755E-06 18806   0.179E-03    0.367E-03
RMM:  14    -0.358972241064E+00   -0.30608E-05   -0.54885E-07 17018   0.109E-03    0.207E-03
RMM:  15    -0.358974526505E+00   -0.22854E-05   -0.68044E-07 20428   0.801E-04    0.909E-04
RMM:  16    -0.358975868162E+00   -0.13417E-05   -0.34211E-07 21067   0.460E-04    0.833E-04
RMM:  17    -0.358976681477E+00   -0.81331E-06   -0.24795E-07 20931   0.444E-04    0.425E-04
RMM:  18    -0.358974704176E+00    0.19773E-05   -0.22077E-07 21857   0.329E-04    0.323E-04
RMM:  19    -0.358974675570E+00    0.28606E-07   -0.23738E-07 22231   0.302E-04    0.128E-04
RMM:  20    -0.358974441792E+00    0.23378E-06   -0.34343E-07 24443   0.262E-04    0.111E-04
RMM:  21    -0.358974701098E+00   -0.25931E-06   -0.21772E-07 23544   0.269E-04    0.758E-05
RMM:  22    -0.358974759291E+00   -0.58193E-07   -0.22573E-07 24847   0.256E-04    0.494E-05
 Linear response progress:
  Degree of freedom:  19/ 51
       N       E                     dE             d eps       ncg     rms          rms(c)
RMM:   1    -0.373388620195E+00   -0.37339E+00    0.49464E-01 24976   0.556E-01
RMM:   2    -0.355872473580E+00    0.17516E-01   -0.17072E-02 18918   0.206E-01    0.333E-01
RMM:   3    -0.355815349007E+00    0.57125E-04   -0.20847E-03 19470   0.774E-02    0.300E-01
RMM:   4    -0.355541895011E+00    0.27345E-03   -0.49264E-03 19620   0.658E-02    0.141E-01
RMM:   5    -0.355653942747E+00   -0.11205E-03   -0.32939E-04 19771   0.315E-02    0.126E-01
RMM:   6    -0.356103163174E+00   -0.44922E-03   -0.10861E-03 16986   0.311E-02    0.550E-02
RMM:   7    -0.356237985330E+00   -0.13482E-03   -0.13175E-04 18768   0.152E-02    0.327E-02
RMM:   8    -0.356198305837E+00    0.39679E-04   -0.71897E-05 18477   0.105E-02    0.278E-02
RMM:   9    -0.356094272986E+00    0.10403E-03   -0.10516E-04 18516   0.892E-03    0.191E-02
RMM:  10    -0.356061500672E+00    0.32772E-04   -0.14569E-05 16497   0.594E-03    0.806E-03
RMM:  11    -0.356034304387E+00    0.27196E-04   -0.12356E-05 19514   0.322E-03    0.618E-03
RMM:  12    -0.356018694505E+00    0.15610E-04   -0.22579E-06 17607   0.222E-03    0.328E-03
RMM:  13    -0.356002915359E+00    0.15779E-04   -0.22841E-06 22153   0.116E-03    0.365E-03
RMM:  14    -0.356000878189E+00    0.20372E-05   -0.13137E-06 18072   0.915E-04    0.204E-03
RMM:  15    -0.355999527250E+00    0.13509E-05   -0.13835E-06 20468   0.694E-04    0.107E-03
RMM:  16    -0.355999596006E+00   -0.68755E-07   -0.10484E-06 21247   0.412E-04    0.855E-04
RMM:  17    -0.355999357816E+00    0.23819E-06   -0.85871E-07 21679   0.426E-04    0.370E-04
RMM:  18    -0.355998032680E+00    0.13251E-05   -0.10925E-06 21904   0.333E-04    0.218E-04
RMM:  19    -0.355998292648E+00   -0.25997E-06   -0.85068E-07 21986   0.309E-04    0.117E-04
RMM:  20    -0.355998301063E+00   -0.84152E-08   -0.10711E-06 23550   0.289E-04    0.862E-05
RMM:  21    -0.355998331023E+00   -0.29960E-07   -0.93806E-07 23444   0.289E-04    0.497E-05
 Linear response progress:
  Degree of freedom:  20/ 51
       N       E                     dE             d eps       ncg     rms          rms(c)
RMM:   1    -0.377424952041E+00   -0.37742E+00    0.28447E-01 22002   0.495E-01
RMM:   2    -0.363222983357E+00    0.14202E-01   -0.14044E-02 17805   0.181E-01    0.174E-01
RMM:   3    -0.363425750848E+00   -0.20277E-03   -0.11163E-03 18717   0.533E-02    0.163E-01
RMM:   4    -0.364409221408E+00   -0.98347E-03   -0.13222E-03 17052   0.371E-02    0.657E-02
RMM:   5    -0.365027052298E+00   -0.61783E-03   -0.31509E-04 18715   0.186E-02    0.487E-02
RMM:   6    -0.364854564578E+00    0.17249E-03   -0.82201E-05 20021   0.116E-02    0.296E-02
RMM:   7    -0.365209048316E+00   -0.35448E-03   -0.37360E-05 16217   0.699E-03    0.242E-02
RMM:   8    -0.365069871498E+00    0.13918E-03   -0.17668E-05 16422   0.560E-03    0.147E-02
RMM:   9    -0.364938482773E+00    0.13139E-03   -0.54224E-05 19318   0.612E-03    0.850E-03
RMM:  10    -0.364930288558E+00    0.81942E-05   -0.11023E-06 18831   0.219E-03    0.520E-03
RMM:  11    -0.364909953144E+00    0.20335E-04   -0.99652E-07 20788   0.140E-03    0.316E-03
RMM:  12    -0.364922439368E+00   -0.12486E-04    0.32181E-07 19428   0.858E-04    0.201E-03
RMM:  13    -0.364916225865E+00    0.62135E-05    0.34062E-07 21158   0.697E-04    0.134E-03
RMM:  14    -0.364921819676E+00   -0.55938E-05    0.57941E-07 20772   0.457E-04    0.935E-04
RMM:  15    -0.364923885120E+00   -0.20654E-05    0.52982E-07 21122   0.410E-04    0.388E-04
RMM:  16    -0.364924457593E+00   -0.57247E-06    0.63778E-07 22191   0.277E-04    0.358E-04
RMM:  17    -0.364923490964E+00    0.96663E-06    0.64116E-07 22888   0.264E-04    0.188E-04
RMM:  18    -0.364923268442E+00    0.22252E-06    0.64182E-07 23722   0.244E-04    0.110E-04
RMM:  19    -0.364922797170E+00    0.47127E-06    0.65205E-07 23261   0.237E-04    0.685E-05
RMM:  20    -0.364922669820E+00    0.12735E-06    0.64134E-07 23814   0.235E-04    0.385E-05
 Linear response progress:
  Degree of freedom:  21/ 51
       N       E                     dE             d eps       ncg     rms          rms(c)
RMM:   1    -0.384316219263E+00   -0.38432E+00    0.37678E-01 26116   0.622E-01
RMM:   2    -0.359404487243E+00    0.24912E-01   -0.14798E-02 17708   0.183E-01    0.208E-01
RMM:   3    -0.359460810508E+00   -0.56323E-04   -0.16989E-03 18429   0.784E-02    0.199E-01
RMM:   4    -0.359554216097E+00   -0.93406E-04   -0.14005E-03 19558   0.459E-02    0.108E-01
RMM:   5    -0.360298426352E+00   -0.74421E-03   -0.10013E-03 19239   0.285E-02    0.702E-02
RMM:   6    -0.360133938755E+00    0.16449E-03   -0.14009E-04 19928   0.177E-02    0.426E-02
RMM:   7    -0.360485008708E+00   -0.35107E-03   -0.82924E-05 18136   0.107E-02    0.297E-02
RMM:   8    -0.360409986780E+00    0.75022E-04   -0.10146E-05 19186   0.613E-03    0.244E-02
RMM:   9    -0.360271722633E+00    0.13826E-03   -0.11461E-04 18757   0.102E-02    0.127E-02
RMM:  10    -0.360266177102E+00    0.55455E-05   -0.50884E-06 18218   0.455E-03    0.106E-02
RMM:  11    -0.360213316397E+00    0.52861E-04   -0.66658E-06 18961   0.341E-03    0.659E-03
RMM:  12    -0.360221409047E+00   -0.80926E-05   -0.19586E-06 18169   0.268E-03    0.365E-03
RMM:  13    -0.360208991942E+00    0.12417E-04   -0.88836E-07 20593   0.158E-03    0.189E-03
RMM:  14    -0.360211182143E+00   -0.21902E-05    0.62863E-07 17836   0.903E-04    0.130E-03
RMM:  15    -0.360208080385E+00    0.31018E-05    0.50474E-07 21275   0.568E-04    0.108E-03
RMM:  16    -0.360206609405E+00    0.14710E-05    0.70025E-07 20963   0.451E-04    0.844E-04
RMM:  17    -0.360205434567E+00    0.11748E-05    0.63795E-07 21307   0.477E-04    0.359E-04
RMM:  18    -0.360204808114E+00    0.62645E-06    0.71197E-07 22812   0.309E-04    0.260E-04
RMM:  19    -0.360203531407E+00    0.12767E-05    0.72139E-07 23426   0.291E-04    0.141E-04
RMM:  20    -0.360203774525E+00   -0.24312E-06    0.73901E-07 24102   0.270E-04    0.127E-04
RMM:  21    -0.360203377582E+00    0.39694E-06    0.72194E-07 23807   0.271E-04    0.659E-05
 Linear response progress:
  Degree of freedom:  22/ 51
       N       E                     dE             d eps       ncg     rms          rms(c)
RMM:   1    -0.127443120622E+00   -0.12744E+00    0.15989E-01 28896   0.321E-01
RMM:   2    -0.117166071884E+00    0.10277E-01   -0.60578E-03 19291   0.984E-02    0.223E-01
RMM:   3    -0.117447708290E+00   -0.28164E-03   -0.47078E-04 19596   0.352E-02    0.211E-01
RMM:   4    -0.117242061999E+00    0.20565E-03   -0.15899E-03 18561   0.363E-02    0.840E-02
RMM:   5    -0.117438373968E+00   -0.19631E-03   -0.18842E-04 20044   0.169E-02    0.706E-02
RMM:   6    -0.117265249457E+00    0.17312E-03   -0.33187E-04 19501   0.192E-02    0.328E-02
RMM:   7    -0.117399160280E+00   -0.13391E-03   -0.35175E-05 17375   0.894E-03    0.218E-02
RMM:   8    -0.117329495615E+00    0.69665E-04    0.62198E-06 17534   0.594E-03    0.146E-02
RMM:   9    -0.117263669237E+00    0.65826E-04   -0.28774E-05 19407   0.530E-03    0.983E-03
RMM:  10    -0.117263215124E+00    0.45411E-06    0.76281E-06 16601   0.299E-03    0.541E-03
RMM:  11    -0.117229606083E+00    0.33609E-04    0.80464E-06 19071   0.247E-03    0.476E-03
RMM:  12    -0.117234533407E+00   -0.49273E-05    0.11234E-05 18615   0.144E-03    0.283E-03
RMM:  13    -0.117231778571E+00    0.27548E-05    0.10508E-05 20338   0.945E-04    0.193E-03
RMM:  14    -0.117231623741E+00    0.15483E-06    0.11847E-05 19121   0.502E-04    0.176E-03
RMM:  15    -0.117232553714E+00   -0.92997E-06    0.11442E-05 19943   0.587E-04    0.663E-04
RMM:  16    -0.117233407763E+00   -0.85405E-06    0.11673E-05 20751   0.344E-04    0.467E-04
RMM:  17    -0.117233711864E+00   -0.30410E-06    0.11266E-05 22931   0.296E-04    0.224E-04
RMM:  18    -0.117233819941E+00   -0.10808E-06    0.11532E-05 22705   0.225E-04    0.140E-04
RMM:  19    -0.117233812193E+00    0.77476E-08    0.11516E-05 23516   0.214E-04    0.112E-04
RMM:  20    -0.117233908331E+00   -0.96138E-07    0.11498E-05 23943   0.204E-04    0.740E-05
RMM:  21    -0.117233875151E+00    0.33180E-07    0.11601E-05 24652   0.200E-04    0.418E-05
 Linear response progress:
  Degree of freedom:  23/ 51
       N       E                     dE             d eps       ncg     rms          rms(c)
RMM:   1    -0.138287601073E+00   -0.13829E+00    0.82754E-02 24754   0.267E-01
RMM:   2    -0.124076650833E+00    0.14211E-01   -0.77516E-03 18882   0.733E-02    0.216E-01
RMM:   3    -0.124038236074E+00    0.38415E-04   -0.34978E-04 18309   0.231E-02    0.206E-01
RMM:   4    -0.124087645971E+00   -0.49410E-04   -0.19631E-03 16176   0.300E-02    0.338E-02
RMM:   5    -0.124113827677E+00   -0.26182E-04   -0.59740E-05 20190   0.850E-03    0.303E-02
RMM:   6    -0.124049169489E+00    0.64658E-04   -0.10474E-05 17851   0.542E-03    0.232E-02
RMM:   7    -0.124052320131E+00   -0.31506E-05   -0.11865E-05 17171   0.439E-03    0.161E-02
[...]
RMM:  19    -0.136158124636E-01    0.76751E-07   -0.13817E-07 22505   0.639E-05    0.412E-05
RMM:  20    -0.136157774046E-01    0.35059E-07   -0.13290E-07 23987   0.550E-05    0.364E-05
RMM:  21    -0.136157507210E-01    0.26684E-07   -0.13492E-07 23967   0.531E-05    0.189E-05
RMM:  22    -0.136157352705E-01    0.15450E-07   -0.13745E-07 24885   0.511E-05    0.149E-05
 Linear response progress:
  Degree of freedom:  42/ 51
       N       E                     dE             d eps       ncg     rms          rms(c)
RMM:   1    -0.218847549016E-01   -0.21885E-01    0.51922E-02 29212   0.179E-01
RMM:   2    -0.159244387310E-01    0.59603E-02   -0.42408E-03 18576   0.712E-02    0.198E-01
RMM:   3    -0.158742857098E-01    0.50153E-04   -0.23806E-04 18577   0.271E-02    0.185E-01
RMM:   4    -0.158309308375E-01    0.43355E-04   -0.33495E-03 19604   0.515E-02    0.117E-01
RMM:   5    -0.156314841679E-01    0.19945E-03   -0.14174E-04 19100   0.187E-02    0.955E-02
RMM:   6    -0.156198963451E-01    0.11588E-04   -0.72538E-04 18607   0.244E-02    0.637E-02
RMM:   7    -0.157309306194E-01   -0.11103E-03   -0.24646E-04 18521   0.154E-02    0.214E-02
RMM:   8    -0.157253739632E-01    0.55567E-05   -0.16054E-05 17694   0.824E-03    0.105E-02
RMM:   9    -0.157310777904E-01   -0.57038E-05   -0.63987E-06 20034   0.338E-03    0.731E-03
RMM:  10    -0.157334017700E-01   -0.23240E-05   -0.12565E-06 16227   0.250E-03    0.521E-03
RMM:  11    -0.157351862162E-01   -0.17844E-05   -0.51613E-06 18860   0.259E-03    0.386E-03
RMM:  12    -0.157361334770E-01   -0.94726E-06   -0.64368E-07 17957   0.146E-03    0.214E-03
RMM:  13    -0.157353613549E-01    0.77212E-06   -0.71978E-07 18906   0.967E-04    0.112E-03
RMM:  14    -0.157349285081E-01    0.43285E-06   -0.14315E-07 17810   0.416E-04    0.982E-04
RMM:  15    -0.157347178106E-01    0.21070E-06   -0.29959E-07 18452   0.420E-04    0.516E-04
RMM:  16    -0.157343498484E-01    0.36796E-06   -0.24093E-07 20325   0.179E-04    0.512E-04
RMM:  17    -0.157340284191E-01    0.32143E-06   -0.28670E-07 19074   0.229E-04    0.201E-04
RMM:  18    -0.157338175909E-01    0.21083E-06   -0.26675E-07 20759   0.119E-04    0.145E-04
RMM:  19    -0.157337924961E-01    0.25095E-07   -0.25027E-07 22212   0.897E-05    0.816E-05
RMM:  20    -0.157337062913E-01    0.86205E-07   -0.26957E-07 23424   0.647E-05    0.656E-05
RMM:  21    -0.157336683576E-01    0.37934E-07   -0.28344E-07 23500   0.610E-05    0.285E-05
RMM:  22    -0.157336529218E-01    0.15436E-07   -0.25551E-07 23883   0.567E-05    0.328E-05
RMM:  23    -0.157336311140E-01    0.21808E-07   -0.27465E-07 24312   0.534E-05    0.159E-05
RMM:  24    -0.157336286519E-01    0.24621E-08   -0.26651E-07 25135   0.509E-05    0.120E-05
RMM:  25    -0.157336207810E-01    0.78709E-08   -0.26987E-07 24641   0.510E-05    0.647E-06
 Linear response progress:
  Degree of freedom:  43/ 51
       N       E                     dE             d eps       ncg     rms          rms(c)
RMM:   1    -0.179480271659E-01   -0.17948E-01   -0.11932E-02 22725   0.900E-02
RMM:   2    -0.165259965530E-01    0.14220E-02   -0.73909E-04 19088   0.233E-02    0.121E-01
RMM:   3    -0.165366909245E-01   -0.10694E-04   -0.61167E-05 17176   0.776E-03    0.114E-01
RMM:   4    -0.169460445166E-01   -0.40935E-03   -0.69593E-04 15195   0.165E-02    0.305E-02
RMM:   5    -0.169398942663E-01    0.61503E-05   -0.21794E-05 19817   0.479E-03    0.304E-02
RMM:   6    -0.169238199419E-01    0.16074E-04   -0.59425E-06 18419   0.285E-03    0.232E-02
RMM:   7    -0.169400729532E-01   -0.16253E-04   -0.55488E-05 17298   0.566E-03    0.645E-03
RMM:   8    -0.169449908386E-01   -0.49179E-05   -0.20068E-06 17686   0.230E-03    0.551E-03
RMM:   9    -0.169356471508E-01    0.93437E-05   -0.83644E-06 20470   0.224E-03    0.489E-03
RMM:  10    -0.169345837017E-01    0.10634E-05   -0.61265E-07 17190   0.110E-03    0.322E-03
RMM:  11    -0.169299208351E-01    0.46629E-05   -0.22340E-06 18566   0.103E-03    0.112E-03
RMM:  12    -0.169303111325E-01   -0.39030E-06   -0.17210E-07 20663   0.416E-04    0.973E-04
RMM:  13    -0.169287180387E-01    0.15931E-05   -0.11746E-07 18394   0.321E-04    0.608E-04
RMM:  14    -0.169285536157E-01    0.16442E-06   -0.88134E-09 20827   0.160E-04    0.478E-04
RMM:  15    -0.169283677669E-01    0.18585E-06   -0.19876E-08 19492   0.141E-04    0.303E-04
RMM:  16    -0.169278828563E-01    0.48491E-06   -0.37975E-08 20560   0.118E-04    0.209E-04
RMM:  17    -0.169278247755E-01    0.58081E-07   -0.45780E-08 21452   0.826E-05    0.128E-04
RMM:  18    -0.169276347856E-01    0.18999E-06   -0.54842E-08 22035   0.645E-05    0.710E-05
RMM:  19    -0.169275588512E-01    0.75934E-07   -0.51799E-08 21909   0.583E-05    0.509E-05
RMM:  20    -0.169274906183E-01    0.68233E-07   -0.45699E-08 23358   0.527E-05    0.336E-05
RMM:  21    -0.169274829664E-01    0.76519E-08   -0.46978E-08 23394   0.505E-05    0.148E-05
 Linear response progress:
  Degree of freedom:  44/ 51
       N       E                     dE             d eps       ncg     rms          rms(c)
RMM:   1    -0.234535884162E-01   -0.23454E-01   -0.96675E-03 25656   0.117E-01
RMM:   2    -0.192039402050E-01    0.42496E-02   -0.31938E-03 18945   0.469E-02    0.212E-01
RMM:   3    -0.191780793275E-01    0.25861E-04   -0.32917E-04 16880   0.165E-02    0.200E-01
RMM:   4    -0.192433297681E-01   -0.65250E-04   -0.39541E-03 17927   0.363E-02    0.784E-02
RMM:   5    -0.191693968576E-01    0.73933E-04   -0.87278E-05 18358   0.112E-02    0.756E-02
RMM:   6    -0.191342574789E-01    0.35139E-04   -0.12045E-04 18451   0.879E-03    0.440E-02
RMM:   7    -0.193124498132E-01   -0.17819E-03   -0.51401E-05 17684   0.636E-03    0.194E-02
RMM:   8    -0.193242175700E-01   -0.11768E-04   -0.15678E-05 17354   0.524E-03    0.108E-02
RMM:   9    -0.193154517033E-01    0.87659E-05   -0.26014E-05 20881   0.393E-03    0.726E-03
RMM:  10    -0.193137455229E-01    0.17062E-05   -0.13202E-06 16949   0.199E-03    0.622E-03
RMM:  11    -0.193096896084E-01    0.40559E-05   -0.40593E-06 17495   0.192E-03    0.403E-03
RMM:  12    -0.193078553959E-01    0.18342E-05   -0.84261E-07 19097   0.962E-04    0.216E-03
RMM:  13    -0.193081657327E-01   -0.31034E-06   -0.41415E-07 18849   0.678E-04    0.110E-03
RMM:  14    -0.193064587748E-01    0.17070E-05   -0.14967E-07 17742   0.434E-04    0.698E-04
RMM:  15    -0.193060714679E-01    0.38731E-06   -0.40094E-08 20130   0.317E-04    0.434E-04
RMM:  16    -0.193051838506E-01    0.88762E-06    0.11827E-08 19418   0.171E-04    0.265E-04
RMM:  17    -0.193044985201E-01    0.68533E-06   -0.11906E-08 19666   0.130E-04    0.148E-04
RMM:  18    -0.193044292869E-01    0.69233E-07    0.97072E-10 20426   0.880E-05    0.926E-05
RMM:  19    -0.193043295274E-01    0.99760E-07   -0.98796E-09 21595   0.806E-05    0.558E-05
RMM:  20    -0.193042988615E-01    0.30666E-07    0.58293E-09 22824   0.624E-05    0.400E-05
RMM:  21    -0.193043039612E-01   -0.50996E-08   -0.11643E-08 22854   0.609E-05    0.271E-05
 Linear response progress:
  Degree of freedom:  45/ 51
       N       E                     dE             d eps       ncg     rms          rms(c)
RMM:   1    -0.177528789150E-01   -0.17753E-01   -0.10950E-02 23465   0.903E-02
RMM:   2    -0.168481170263E-01    0.90476E-03   -0.80193E-04 19421   0.255E-02    0.132E-01
RMM:   3    -0.168552692009E-01   -0.71522E-05   -0.75435E-05 17149   0.874E-03    0.125E-01
RMM:   4    -0.172541344739E-01   -0.39887E-03   -0.11662E-03 16160   0.224E-02    0.479E-02
RMM:   5    -0.172107452769E-01    0.43389E-04   -0.28890E-05 19973   0.645E-03    0.461E-02
RMM:   6    -0.171877914905E-01    0.22954E-04   -0.17318E-05 19233   0.401E-03    0.341E-02
RMM:   7    -0.172283720331E-01   -0.40581E-04   -0.10888E-04 17557   0.813E-03    0.117E-02
RMM:   8    -0.172349086076E-01   -0.65366E-05   -0.53065E-06 16700   0.348E-03    0.956E-03
RMM:   9    -0.172290337536E-01    0.58749E-05   -0.25808E-05 18623   0.369E-03    0.717E-03
RMM:  10    -0.172292918448E-01   -0.25809E-06   -0.10779E-06 18443   0.155E-03    0.676E-03
RMM:  11    -0.172255097585E-01    0.37821E-05   -0.30456E-06 17098   0.149E-03    0.273E-03
RMM:  12    -0.172230663614E-01    0.24434E-05   -0.78299E-07 19913   0.879E-04    0.241E-03
RMM:  13    -0.172222704822E-01    0.79588E-06   -0.37406E-07 18597   0.647E-04    0.780E-04
RMM:  14    -0.172214610007E-01    0.80948E-06   -0.84938E-08 20629   0.325E-04    0.614E-04
RMM:  15    -0.172203688639E-01    0.10921E-05   -0.60582E-08 18232   0.251E-04    0.319E-04
RMM:  16    -0.172197368145E-01    0.63205E-06   -0.42815E-08 20763   0.152E-04    0.272E-04
RMM:  17    -0.172193302233E-01    0.40659E-06   -0.39124E-08 18365   0.114E-04    0.171E-04
RMM:  18    -0.172190581782E-01    0.27205E-06   -0.47868E-08 20813   0.827E-05    0.117E-04
RMM:  19    -0.172190375085E-01    0.20670E-07   -0.39265E-08 20973   0.608E-05    0.897E-05
RMM:  20    -0.172189200217E-01    0.11749E-06   -0.39920E-08 22659   0.514E-05    0.577E-05
RMM:  21    -0.172188961774E-01    0.23844E-07   -0.38327E-08 22516   0.466E-05    0.322E-05
RMM:  22    -0.172188435861E-01    0.52591E-07   -0.39324E-08 22700   0.461E-05    0.199E-05
RMM:  23    -0.172188312234E-01    0.12363E-07   -0.39323E-08 23606   0.439E-05    0.105E-05
 Linear response progress:
  Degree of freedom:  46/ 51
       N       E                     dE             d eps       ncg     rms          rms(c)
RMM:   1    -0.202893318779E-01   -0.20289E-01   -0.35033E-03 24646   0.104E-01
RMM:   2    -0.180374982484E-01    0.22518E-02   -0.20240E-03 18979   0.373E-02    0.179E-01
RMM:   3    -0.180295278448E-01    0.79704E-05   -0.20466E-04 16607   0.140E-02    0.169E-01
RMM:   4    -0.182686957289E-01   -0.23917E-03   -0.28216E-03 17219   0.314E-02    0.687E-02
RMM:   5    -0.182075237117E-01    0.61172E-04   -0.63246E-05 18947   0.942E-03    0.660E-02
RMM:   6    -0.181520090786E-01    0.55515E-04   -0.53442E-05 19505   0.566E-03    0.472E-02
RMM:   7    -0.182718461295E-01   -0.11984E-03   -0.22143E-04 17710   0.982E-03    0.956E-03
RMM:   8    -0.182768881096E-01   -0.50420E-05   -0.81631E-06 19310   0.398E-03    0.891E-03
RMM:   9    -0.182800606711E-01   -0.31726E-05   -0.58939E-06 18685   0.306E-03    0.743E-03
RMM:  10    -0.182756936489E-01    0.43670E-05   -0.11825E-06 19861   0.158E-03    0.561E-03
RMM:  11    -0.182749460236E-01    0.74763E-06   -0.30902E-06 17017   0.160E-03    0.219E-03
RMM:  12    -0.182720187425E-01    0.29273E-05   -0.31199E-07 20105   0.733E-04    0.166E-03
RMM:  13    -0.182699382958E-01    0.20804E-05   -0.20838E-07 18501   0.516E-04    0.105E-03
RMM:  14    -0.182684702767E-01    0.14680E-05   -0.74628E-08 20039   0.307E-04    0.760E-04
RMM:  15    -0.182668050938E-01    0.16652E-05   -0.85216E-08 16990   0.273E-04    0.373E-04
RMM:  16    -0.182662150432E-01    0.59005E-06   -0.61374E-08 19673   0.167E-04    0.292E-04
RMM:  17    -0.182662603739E-01   -0.45331E-07   -0.33075E-08 18596   0.124E-04    0.134E-04
RMM:  18    -0.182660183866E-01    0.24199E-06   -0.36580E-08 21763   0.740E-05    0.110E-04
RMM:  19    -0.182660259340E-01   -0.75474E-08   -0.36733E-08 21530   0.671E-05    0.600E-05
 Linear response progress:
  Degree of freedom:  47/ 51
       N       E                     dE             d eps       ncg     rms          rms(c)
RMM:   1    -0.176377579384E-01   -0.17638E-01   -0.11402E-02 22372   0.882E-02
RMM:   2    -0.165885297321E-01    0.10492E-02   -0.69763E-04 19217   0.227E-02    0.128E-01
RMM:   3    -0.165966915928E-01   -0.81619E-05   -0.65433E-05 16843   0.754E-03    0.122E-01
RMM:   4    -0.170230320271E-01   -0.42634E-03   -0.89429E-04 15571   0.188E-02    0.396E-02
RMM:   5    -0.169936692393E-01    0.29363E-04   -0.18851E-05 19796   0.525E-03    0.383E-02
RMM:   6    -0.169650413590E-01    0.28628E-04   -0.25241E-05 19070   0.402E-03    0.241E-02
RMM:   7    -0.169850872416E-01   -0.20046E-04   -0.81692E-05 18126   0.652E-03    0.101E-02
RMM:   8    -0.169923511592E-01   -0.72639E-05   -0.62025E-06 18097   0.323E-03    0.624E-03
RMM:   9    -0.169847939476E-01    0.75572E-05   -0.68450E-06 19916   0.216E-03    0.361E-03
RMM:  10    -0.169849972142E-01   -0.20327E-06   -0.59742E-07 19792   0.104E-03    0.415E-03
RMM:  11    -0.169818260762E-01    0.31711E-05   -0.15803E-06 16642   0.106E-03    0.128E-03
RMM:  12    -0.169795409208E-01    0.22852E-05   -0.37507E-07 19159   0.579E-04    0.162E-03
RMM:  13    -0.169791662047E-01    0.37472E-06   -0.82798E-08 19071   0.399E-04    0.847E-04
RMM:  14    -0.169779993654E-01    0.11668E-05   -0.30860E-08 20845   0.242E-04    0.476E-04
RMM:  15    -0.169771535838E-01    0.84578E-06   -0.36364E-10 17862   0.188E-04    0.224E-04
RMM:  16    -0.169765001774E-01    0.65341E-06    0.10030E-08 19092   0.124E-04    0.236E-04
RMM:  17    -0.169762690631E-01    0.23111E-06    0.13973E-09 20821   0.931E-05    0.156E-04
RMM:  18    -0.169762595572E-01    0.95059E-08    0.67067E-10 22922   0.706E-05    0.103E-04
 Linear response progress:
  Degree of freedom:  48/ 51
       N       E                     dE             d eps       ncg     rms          rms(c)
RMM:   1    -0.204324082510E-01   -0.20432E-01   -0.82967E-03 25086   0.104E-01
RMM:   2    -0.179016468036E-01    0.25308E-02   -0.20517E-03 18951   0.364E-02    0.173E-01
RMM:   3    -0.178882130209E-01    0.13434E-04   -0.17863E-04 16490   0.126E-02    0.163E-01
RMM:   4    -0.181032410849E-01   -0.21503E-03   -0.23955E-03 17378   0.291E-02    0.619E-02
RMM:   5    -0.180685246612E-01    0.34716E-04   -0.54532E-05 19405   0.879E-03    0.602E-02
RMM:   6    -0.180262680992E-01    0.42257E-04   -0.84316E-05 18920   0.651E-03    0.349E-02
RMM:   7    -0.181440778946E-01   -0.11781E-03   -0.62669E-05 18763   0.596E-03    0.114E-02
RMM:   8    -0.181507248477E-01   -0.66470E-05   -0.50370E-06 17298   0.321E-03    0.863E-03
RMM:   9    -0.181428566573E-01    0.78682E-05   -0.16518E-05 18948   0.326E-03    0.629E-03
RMM:  10    -0.181396552621E-01    0.32014E-05   -0.11113E-06 17908   0.172E-03    0.552E-03
RMM:  11    -0.181379090350E-01    0.17462E-05   -0.26227E-06 17592   0.133E-03    0.222E-03
RMM:  12    -0.181368676249E-01    0.10414E-05   -0.40739E-07 20824   0.630E-04    0.154E-03
RMM:  13    -0.181365115922E-01    0.35603E-06   -0.23734E-07 17874   0.483E-04    0.898E-04
RMM:  14    -0.181348702032E-01    0.16414E-05   -0.18472E-07 19279   0.349E-04    0.530E-04
RMM:  15    -0.181344992254E-01    0.37098E-06   -0.10022E-07 18465   0.237E-04    0.272E-04
RMM:  16    -0.181339009507E-01    0.59827E-06   -0.67148E-08 20918   0.153E-04    0.174E-04
RMM:  17    -0.181337261246E-01    0.17483E-06   -0.60026E-08 20389   0.120E-04    0.101E-04
RMM:  18    -0.181336217233E-01    0.10440E-06   -0.47188E-08 22850   0.886E-05    0.831E-05
RMM:  19    -0.181336219891E-01   -0.26579E-09   -0.53802E-08 20880   0.828E-05    0.521E-05
 Linear response progress:
  Degree of freedom:  49/ 51
       N       E                     dE             d eps       ncg     rms          rms(c)
RMM:   1    -0.215534571656E-01   -0.21553E-01    0.12109E-03 25630   0.115E-01
RMM:   2    -0.185740467254E-01    0.29794E-02   -0.27043E-03 19031   0.456E-02    0.197E-01
RMM:   3    -0.185872153528E-01   -0.13169E-04   -0.29687E-04 16184   0.165E-02    0.187E-01
RMM:   4    -0.187630040673E-01   -0.17579E-03   -0.36027E-03 17370   0.351E-02    0.767E-02
RMM:   5    -0.186939000334E-01    0.69104E-04   -0.81332E-05 18668   0.106E-02    0.737E-02
RMM:   6    -0.186297962881E-01    0.64104E-04   -0.59559E-05 19571   0.647E-03    0.531E-02
RMM:   7    -0.187632576731E-01   -0.13346E-03   -0.25679E-04 17095   0.111E-02    0.114E-02
RMM:   8    -0.187704970897E-01   -0.72394E-05   -0.91519E-06 19392   0.439E-03    0.106E-02
RMM:   9    -0.187822171725E-01   -0.11720E-04   -0.73895E-06 18075   0.340E-03    0.871E-03
RMM:  10    -0.187752103169E-01    0.70069E-05   -0.21208E-06 19434   0.190E-03    0.611E-03
RMM:  11    -0.187749545252E-01    0.25579E-06   -0.68062E-06 17003   0.210E-03    0.285E-03
RMM:  12    -0.187719248029E-01    0.30297E-05   -0.48644E-07 19657   0.853E-04    0.225E-03
RMM:  13    -0.187683711829E-01    0.35536E-05   -0.39923E-07 18245   0.569E-04    0.126E-03
RMM:  14    -0.187671217364E-01    0.12494E-05   -0.20539E-07 20053   0.301E-04    0.965E-04
RMM:  15    -0.187655334720E-01    0.15883E-05   -0.16863E-07 17504   0.318E-04    0.535E-04
RMM:  16    -0.187646001584E-01    0.93331E-06   -0.17792E-07 18379   0.255E-04    0.309E-04
RMM:  17    -0.187645751255E-01    0.25033E-07   -0.15356E-07 19465   0.135E-04    0.180E-04
RMM:  18    -0.187643433378E-01    0.23179E-06   -0.15199E-07 21636   0.917E-05    0.111E-04
RMM:  19    -0.187642967529E-01    0.46585E-07   -0.14794E-07 21610   0.698E-05    0.729E-05
RMM:  20    -0.187640777670E-01    0.21899E-06   -0.14504E-07 22028   0.752E-05    0.514E-05
RMM:  21    -0.187640582294E-01    0.19538E-07   -0.14586E-07 23194   0.584E-05    0.417E-05
RMM:  22    -0.187640570847E-01    0.11447E-08   -0.14491E-07 22983   0.561E-05    0.324E-05
RMM:  23    -0.187640565480E-01    0.53664E-09   -0.14581E-07 23999   0.536E-05    0.280E-05
 Linear response progress:
  Degree of freedom:  50/ 51
       N       E                     dE             d eps       ncg     rms          rms(c)
RMM:   1    -0.176248510579E-01   -0.17625E-01   -0.15171E-02 21530   0.872E-02
RMM:   2    -0.163241334183E-01    0.13007E-02   -0.64058E-04 19037   0.210E-02    0.118E-01
RMM:   3    -0.163338838000E-01   -0.97504E-05   -0.52082E-05 17151   0.675E-03    0.113E-01
RMM:   4    -0.167763930890E-01   -0.44251E-03   -0.54595E-04 15878   0.149E-02    0.261E-02
RMM:   5    -0.167386073865E-01    0.37786E-04   -0.12449E-05 19385   0.420E-03    0.239E-02
RMM:   6    -0.167187905458E-01    0.19817E-04   -0.43858E-05 17948   0.550E-03    0.937E-03
RMM:   7    -0.167414349998E-01   -0.22644E-04   -0.19087E-06 17564   0.187E-03    0.898E-03
RMM:   8    -0.167291614644E-01    0.12274E-04   -0.51160E-06 17355   0.200E-03    0.460E-03
RMM:   9    -0.167242275340E-01    0.49339E-05   -0.74591E-06 19186   0.187E-03    0.482E-03
 Linear response progress:
  Degree of freedom:  51/ 51
       N       E                     dE             d eps       ncg     rms          rms(c)
RMM:   1    -0.193380496560E-01   -0.19338E-01   -0.12249E-02 23442   0.951E-02
RMM:   2    -0.172579577459E-01    0.20801E-02   -0.14558E-03 19038   0.296E-02    0.151E-01
RMM:   3    -0.172501248841E-01    0.78329E-05   -0.11544E-04 16704   0.100E-02    0.143E-01
RMM:   4    -0.175146554655E-01   -0.26453E-03   -0.15571E-03 17094   0.236E-02    0.505E-02
RMM:   5    -0.175008099954E-01    0.13845E-04   -0.38031E-05 19532   0.729E-03    0.495E-02
RMM:   6    -0.174774574345E-01    0.23353E-04   -0.67753E-05 18568   0.604E-03    0.268E-02
RMM:   7    -0.175691370313E-01   -0.91680E-04   -0.22236E-05 18168   0.395E-03    0.134E-02
RMM:   8    -0.175711323797E-01   -0.19953E-05   -0.11993E-05 16852   0.354E-03    0.648E-03
RMM:   9    -0.175637625669E-01    0.73698E-05   -0.10424E-05 21644   0.264E-03    0.530E-03
RMM:  10    -0.175628177730E-01    0.94479E-06   -0.62920E-07 17431   0.133E-03    0.430E-03
RMM:  11    -0.175573233441E-01    0.54944E-05   -0.16940E-06 17111   0.115E-03    0.191E-03
RMM:  12    -0.175563095580E-01    0.10138E-05   -0.10284E-07 19092   0.556E-04    0.151E-03
RMM:  13    -0.175565046910E-01   -0.19513E-06   -0.16284E-07 18709   0.520E-04    0.716E-04
RMM:  14    -0.175556492145E-01    0.85548E-06    0.33687E-08 18363   0.262E-04    0.445E-04
RMM:  15    -0.175548901510E-01    0.75906E-06    0.37484E-08 19390   0.183E-04    0.204E-04
RMM:  16    -0.175544202571E-01    0.46989E-06    0.62200E-08 19733   0.986E-05    0.148E-04
RMM:  17    -0.175542339839E-01    0.18627E-06    0.54580E-08 20301   0.836E-05    0.118E-04
RMM:  18    -0.175542372444E-01   -0.32605E-08    0.67856E-08 21747   0.571E-05    0.838E-05
 Linear response finished
