       N       E                     dE             d eps       ncg     rms          ort
DAV:   1    -0.112683112536E+06   -0.11268E+06   -0.97777E+05   384   0.189E+03
DAV:   2    -0.119595887803E+06   -0.69128E+04   -0.69128E+04   384   0.477E+02
DAV:   3    -0.120298418618E+06   -0.70253E+03   -0.70253E+03   384   0.162E+02
DAV:   4    -0.120396825380E+06   -0.98407E+02   -0.98407E+02   384   0.648E+01
DAV:   5    -0.120410446223E+06   -0.13621E+02   -0.13620E+02   384   0.238E+01
DAV:   6    -0.120412405673E+06   -0.19595E+01   -0.19589E+01   384   0.965E+00
DAV:   7    -0.120412746947E+06   -0.34127E+00   -0.34125E+00   384   0.401E+00
DAV:   8    -0.120412811635E+06   -0.64688E-01   -0.64687E-01   384   0.189E+00
DAV:   9    -0.120412825990E+06   -0.14355E-01   -0.14355E-01   384   0.880E-01
DAV:  10    -0.120412829485E+06   -0.34956E-02   -0.34956E-02   384   0.458E-01
DAV:  11    -0.120412830473E+06   -0.98789E-03   -0.98787E-03   384   0.231E-01
DAV:  12    -0.120412830782E+06   -0.30864E-03   -0.30864E-03   384   0.128E-01
DAV:  13    -0.120412830891E+06   -0.10944E-03   -0.10948E-03   384   0.688E-02
DAV:  14    -0.120412830934E+06   -0.42133E-04   -0.42127E-04   384   0.400E-02
DAV:  15    -0.982471779340E+05    0.22166E+05   -0.20846E+02   384   0.937E+01
SDA:  16     0.112868850826E+07    0.12269E+07   -0.20846E+02   384   0.545E+07 0.000E+00
CGA:  17     0.761951975650E+06   -0.36674E+06   -0.66156E+06   384   0.789E+07 0.381E+05
CGA:  18     0.346128694752E+06   -0.41582E+06   -0.93165E+06   384   0.376E+08-0.259E+06
CGA:  19     0.277234001469E+06   -0.68895E+05   -0.35211E+07   384   0.399E+08 0.122E+06
CGA:  20     0.456964445748E+06    0.17973E+06   -0.37184E+07   384   0.920E+08 0.350E+05
CGA:  21     0.505102913944E+06    0.48138E+05   -0.83951E+07   384   0.738E+08 0.451E+06
CGA:  22     0.572404670566E+06    0.67302E+05   -0.65917E+07   384   0.741E+08 0.489E+06
CGA:  23     0.524870467438E+06   -0.47534E+05   -0.65516E+07   384   0.474E+08 0.615E+06
CGA:  24     0.307749394623E+06   -0.21712E+06   -0.41140E+07   384   0.126E+08 0.366E+06
CGA:  25     0.303175902570E+06   -0.45735E+04   -0.10567E+07   384   0.139E+08 0.306E+06
CGA:  26     0.388742472449E+06    0.85567E+05   -0.11234E+07   384   0.112E+08 0.254E+06
CGA:  27     0.454971482667E+06    0.66229E+05   -0.90620E+06   384   0.197E+08 0.633E+06
CGA:  28     0.413214781826E+06   -0.41757E+05   -0.16061E+07   384   0.853E+07 0.399E+06
CGA:  29     0.499852694089E+06    0.86638E+05   -0.65273E+06   384   0.177E+08 0.487E+06
CGA:  30     0.515311590276E+06    0.15459E+05   -0.13786E+07   384   0.125E+08 0.684E+06
CGA:  31     0.477130829617E+06   -0.38181E+05   -0.94749E+06   384   0.984E+07 0.580E+06
CGA:  32     0.444056453118E+06   -0.33074E+05   -0.72826E+06   384   0.674E+07 0.388E+06
CGA:  33     0.526270017021E+06    0.82214E+05   -0.46215E+06   384   0.660E+07 0.437E+06
CGA:  34     0.525770361676E+06   -0.49966E+03   -0.50186E+06   384   0.124E+08 0.900E+06
CGA:  35     0.537885890379E+06    0.12116E+05   -0.91425E+06   384   0.419E+07 0.284E+06
CGA:  36     0.479778753886E+06   -0.58107E+05   -0.31058E+06   384   0.559E+07 0.434E+06
CGA:  37     0.613550892061E+06    0.13377E+06   -0.36326E+06   384   0.525E+07 0.435E+06
CGA:  38     0.524917611822E+06   -0.88633E+05   -0.39235E+06   384   0.585E+07 0.677E+06
CGA:  39     0.612721173113E+06    0.87804E+05   -0.39266E+06   384   0.442E+07 0.476E+06
CGA:  40     0.531932140171E+06   -0.80789E+05   -0.32175E+06   384   0.512E+07 0.434E+06
CGA:  41     0.614545016429E+06    0.82613E+05   -0.32160E+06   384   0.347E+07 0.568E+06
CGA:  42     0.516289434312E+06   -0.98256E+05   -0.27193E+06   384   0.444E+07 0.564E+06
CGA:  43     0.526446821059E+06    0.10157E+05   -0.28383E+06   384   0.256E+07 0.369E+06
CGA:  44     0.527810373723E+06    0.13636E+04   -0.16569E+06   384   0.531E+07 0.202E+07
CGA:  45     0.195396611975E+06   -0.33241E+06   -0.44216E+06   384   0.212E+07 0.116E+07
CGA:  46     0.723861318003E+05   -0.12301E+06   -0.17847E+06   384   0.298E+06 0.412E+06
CGA:  47     0.487036817610E+05   -0.23682E+05   -0.29340E+05   384   0.110E+06 0.165E+06
CGA:  48     0.358921540464E+05   -0.12812E+05   -0.93119E+04   384   0.321E+05 0.341E+05
CGA:  49     0.269315596765E+05   -0.89606E+04   -0.13087E+05   384   0.390E+05-0.226E+05
CGA:  50     0.215609964224E+05   -0.53706E+04   -0.61568E+04   384   0.211E+05-0.111E+05
CGA:  51     0.132653896373E+06    0.11109E+06   -0.39124E+05   384   0.182E+07-0.241E+06
CGA:  52     0.580474190047E+05   -0.74606E+05   -0.18013E+06   384   0.429E+06-0.494E+06
CGA:  53     0.257074199099E+05   -0.32340E+05   -0.14822E+05   384   0.236E+06 0.387E+06
CGA:  54     0.122997297770E+05   -0.13408E+05   -0.11674E+05   384   0.108E+05 0.173E+04
CGA:  55     0.971051729857E+04   -0.25892E+04   -0.29495E+04   384   0.376E+04-0.367E+04
CGA:  56     0.704474634532E+05    0.60737E+05   -0.14169E+05   384   0.223E+07-0.114E+06
CGA:  57     0.111097496567E+06    0.40650E+05   -0.35272E+06   384   0.512E+06-0.198E+06
CGA:  58     0.172547821220E+05   -0.93843E+05   -0.35791E+05   384   0.514E+05-0.112E+06
CGA:  59     0.108417542243E+05   -0.64130E+04   -0.56931E+04   384   0.878E+05 0.703E+04
CGA:  60     0.776960790691E+04   -0.30721E+04   -0.54493E+04   384   0.206E+05-0.282E+05
CGA:  61     0.684832038200E+04   -0.92129E+03   -0.66332E+03   384   0.223E+04 0.289E+04
CGA:  62     0.637137139732E+04   -0.47695E+03   -0.42010E+03   384   0.151E+04 0.484E+02
CGA:  63     0.615360299742E+04   -0.21777E+03   -0.20009E+03   384   0.201E+04 0.434E+02
CGA:  64     0.568654605952E+04   -0.46706E+03   -0.45082E+03   384   0.790E+04-0.231E+03
CGA:  65     0.486794571591E+04   -0.81860E+03   -0.82249E+03   384   0.321E+04 0.665E+03
CGA:  66     0.454796322019E+04   -0.31998E+03   -0.25490E+03   384   0.214E+04 0.977E+03
CGA:  67     0.430619435708E+04   -0.24177E+03   -0.23270E+03   384   0.329E+04-0.682E+02
CGA:  68     0.398065119957E+04   -0.32554E+03   -0.41339E+03   384   0.431E+04-0.250E+03
CGA:  69     0.353129845621E+04   -0.44935E+03   -0.35984E+03   384   0.229E+04 0.116E+04
CGA:  70     0.308594940885E+04   -0.44535E+03   -0.41464E+03   384   0.149E+04-0.781E+01
CGA:  71     0.280978777303E+04   -0.27616E+03   -0.29220E+03   384   0.638E+04 0.146E+03
CGA:  72     0.269464506309E+04   -0.11514E+03   -0.56136E+03   384   0.115E+05-0.265E+04
CGA:  73     0.234145374191E+04   -0.35319E+03   -0.50279E+03   384   0.343E+04 0.177E+04
CGA:  74     0.213605422983E+04   -0.20540E+03   -0.30207E+03   384   0.647E+04-0.104E+04
CGA:  75     0.214639312175E+04    0.10339E+02   -0.19972E+03   384   0.344E+04-0.218E+04
CGA:  76     0.211208013456E+04   -0.34313E+02   -0.51833E+02   384   0.249E+04 0.610E+03
CGA:  77     0.202274155114E+04   -0.89339E+02   -0.82832E+02   384   0.259E+04 0.672E+03
CGA:  78     0.191745338038E+04   -0.10529E+03   -0.22664E+03   384   0.720E+04-0.121E+04
CGA:  79     0.200713370140E+04    0.89680E+02   -0.17711E+03   384   0.407E+04-0.271E+04
CGA:  80     0.158979540279E+04   -0.41734E+03   -0.46294E+03   384   0.598E+04-0.196E+04
CGA:  81     0.157065319124E+04   -0.19142E+02   -0.72270E+02   384   0.375E+04-0.132E+04
CGA:  82     0.152433605839E+04   -0.46317E+02   -0.62595E+02   384   0.310E+04 0.143E+03
CGA:  83     0.145019093605E+04   -0.74145E+02   -0.92967E+02   384   0.375E+04-0.395E+03
CGA:  84     0.143094061928E+04   -0.19250E+02   -0.15422E+03   384   0.614E+04-0.197E+04
CGA:  85     0.122811709416E+04   -0.20282E+03   -0.14838E+03   384   0.118E+04 0.216E+04
CGA:  86     0.115913914275E+04   -0.68978E+02   -0.60811E+02   384   0.113E+04 0.177E+03
CGA:  87     0.107165631202E+04   -0.87483E+02   -0.88463E+02   384   0.237E+04-0.286E+02
CGA:  88     0.994798622776E+03   -0.76858E+02   -0.12683E+03   384   0.335E+04-0.547E+03
CGA:  89     0.850687848553E+03   -0.14411E+03   -0.18537E+03   384   0.464E+04-0.108E+03
CGA:  90     0.598484349097E+03   -0.25220E+03   -0.18405E+03   384   0.192E+04 0.165E+04
CGA:  91     0.522530892884E+03   -0.75953E+02   -0.56391E+02   384   0.627E+03 0.787E+03
CGA:  92     0.491051110980E+03   -0.31480E+02   -0.30038E+02   384   0.827E+03 0.216E+02
CGA:  93     0.461035392077E+03   -0.30016E+02   -0.35493E+02   384   0.148E+04-0.955E+02
CGA:  94     0.442721045797E+03   -0.18314E+02   -0.31101E+02   384   0.127E+04-0.304E+03
CGA:  95     0.427397817854E+03   -0.15323E+02   -0.25534E+02   384   0.173E+04-0.230E+03
CGA:  96     0.385036553759E+03   -0.42361E+02   -0.60340E+02   384   0.306E+04-0.219E+03
CGA:  97     0.313654623962E+03   -0.71382E+02   -0.62391E+02   384   0.169E+04 0.684E+03
CGA:  98     0.268770255544E+03   -0.44884E+02   -0.42801E+02   384   0.724E+03 0.136E+03
CGA:  99     0.243898897920E+03   -0.24871E+02   -0.25035E+02   384   0.100E+04-0.192E+02
CGA: 100     0.214449041869E+03   -0.29450E+02   -0.34097E+02   384   0.125E+04-0.109E+03
CGA: 101     0.194105469937E+03   -0.20344E+02   -0.25916E+02   384   0.767E+03-0.173E+03
CGA: 102     0.179403331746E+03   -0.14702E+02   -0.16140E+02   384   0.786E+03-0.396E+02
CGA: 103     0.151122219759E+03   -0.28281E+02   -0.31017E+02   384   0.145E+04-0.363E+02
CGA: 104     0.102145558453E+03   -0.48977E+02   -0.54635E+02   384   0.109E+04-0.499E+02
CGA: 105     0.767430245098E+02   -0.25403E+02   -0.28526E+02   384   0.807E+03-0.526E+02
CGA: 106     0.386575098780E+02   -0.38086E+02   -0.38857E+02   384   0.143E+04-0.460E+01
CGA: 107     0.467359006368E+01   -0.33984E+02   -0.36663E+02   384   0.840E+03-0.109E+02
CGA: 108    -0.930945112384E+01   -0.13983E+02   -0.16719E+02   384   0.420E+03-0.669E+02
CGA: 109    -0.196995065059E+02   -0.10390E+02   -0.10882E+02   384   0.548E+03-0.206E+02
CGA: 110    -0.453540238319E+02   -0.25655E+02   -0.26369E+02   384   0.130E+04-0.506E+01
CGA: 111    -0.116649732148E+03   -0.71296E+02   -0.72253E+02   384   0.721E+03 0.377E+02
CGA: 112    -0.136615703272E+03   -0.19966E+02   -0.17074E+02   384   0.322E+03 0.128E+03
CGA: 113    -0.150614253310E+03   -0.13999E+02   -0.13115E+02   384   0.479E+03 0.173E+01
CGA: 114    -0.170868156649E+03   -0.20254E+02   -0.20799E+02   384   0.105E+04-0.154E+02
SDA: 115    -0.201439384655E+03   -0.30571E+02   -0.34488E+02   384   0.776E+03-0.389E+02
CGA: 116    -0.244527428931E+03   -0.43088E+02   -0.43211E+02   384   0.344E+03 0.340E+02
CGA: 117    -0.281401227826E+03   -0.36874E+02   -0.37506E+02   384   0.191E+03-0.144E+02
CGA: 118    -0.350052373584E+03   -0.68651E+02   -0.32998E+01   384   0.161E+03-0.420E+01
CGA: 119    -0.365834869663E+03   -0.15782E+02   -0.14412E+02   384   0.221E+03-0.639E+01
CGA: 120    -0.378308586820E+03   -0.12474E+02   -0.15814E+02   384   0.250E+03 0.235E+02
CGA: 121    -0.398389440447E+03   -0.20081E+02   -0.21335E+02   384   0.357E+03 0.117E+01
CGA: 122    -0.412805536423E+03   -0.14416E+02   -0.17904E+02   384   0.165E+03 0.830E+01
CGA: 123    -0.430405276876E+03   -0.17600E+02   -0.17509E+02   384   0.269E+03 0.302E+02
CGA: 124    -0.442791779645E+03   -0.12387E+02   -0.12960E+02   384   0.105E+03-0.510E+02
CGA: 125    -0.457862320748E+03   -0.15071E+02   -0.15931E+02   384   0.933E+02-0.949E+01
CGA: 126    -0.473074501183E+03   -0.15212E+02   -0.17879E+02   384   0.141E+03-0.107E+02
CGA: 127    -0.479272356606E+03   -0.61979E+01   -0.67608E+01   384   0.674E+02 0.153E+01
CGA: 128    -0.490648236799E+03   -0.11376E+02   -0.11680E+02   384   0.148E+03-0.490E+01
CGA: 129    -0.496792822576E+03   -0.61446E+01   -0.65379E+01   384   0.566E+02-0.882E+01
CGA: 130    -0.503204325418E+03   -0.64115E+01   -0.62849E+01   384   0.122E+03 0.506E+01
CGA: 131    -0.508155331820E+03   -0.49510E+01   -0.66704E+01   384   0.119E+03-0.882E+02
CGA: 132    -0.511401272358E+03   -0.32459E+01   -0.63924E+01   384   0.998E+02-0.207E+02
CGA: 133    -0.518898375252E+03   -0.74971E+01   -0.74504E+01   384   0.364E+02-0.154E+01
CGA: 134    -0.523454246413E+03   -0.45559E+01   -0.44625E+01   384   0.390E+02 0.271E+01
CGA: 135    -0.528104466343E+03   -0.46502E+01   -0.60531E+01   384   0.129E+03-0.299E+02
CGA: 136    -0.530830704012E+03   -0.27262E+01   -0.58914E+01   384   0.305E+02-0.288E+02
CGA: 137    -0.533059069748E+03   -0.22284E+01   -0.22119E+01   384   0.157E+02-0.861E+00
CGA: 138    -0.536578327394E+03   -0.35193E+01   -0.28663E+01   384   0.104E+02 0.610E+01
CGA: 139    -0.540408064114E+03   -0.38297E+01   -0.33411E+01   384   0.168E+02 0.319E+01
CGA: 140    -0.545535899959E+03   -0.51278E+01   -0.46875E+01   384   0.569E+01 0.289E+01
CGA: 141    -0.546838641378E+03   -0.13027E+01   -0.12339E+01   384   0.271E+01 0.740E+00
CGA: 142    -0.547717218674E+03   -0.87858E+00   -0.14065E+01   384   0.647E+01-0.229E+01
CGA: 143    -0.548281605418E+03   -0.56439E+00   -0.60468E+00   384   0.123E+01 0.412E-01
CGA: 144    -0.548675713133E+03   -0.39411E+00   -0.43255E+00   384   0.950E+00-0.237E+00
CGA: 145    -0.548874495790E+03   -0.19878E+00   -0.19197E+00   384   0.116E+01 0.589E-01
CGA: 146    -0.549068474619E+03   -0.19398E+00   -0.21183E+00   384   0.178E+01-0.562E+00
CGA: 147    -0.549147887575E+03   -0.79413E-01   -0.76400E-01   384   0.183E+01 0.147E-01
CGA: 148    -0.549217347063E+03   -0.69459E-01   -0.80651E-01   384   0.358E+00-0.225E+00
CGA: 149    -0.549295115506E+03   -0.77768E-01   -0.75401E-01   384   0.459E+00 0.211E-01
CGA: 150    -0.549320200914E+03   -0.25085E-01   -0.22548E-01   384   0.115E+00 0.409E-01
CGA: 151    -0.549360738145E+03   -0.40537E-01   -0.41804E-01   384   0.380E+00-0.701E-02
CGA: 152    -0.549378716420E+03   -0.17978E-01   -0.20782E-01   384   0.881E-01-0.298E-01
CGA: 153    -0.549389218008E+03   -0.10502E-01   -0.10582E-01   384   0.177E+00 0.195E-02
CGA: 154    -0.549413952480E+03   -0.24734E-01   -0.24644E-01   384   0.393E-01-0.258E-02
CGA: 155    -0.549418316640E+03   -0.43642E-02   -0.42808E-02   384   0.672E-01-0.131E-03
CGA: 156    -0.549429450140E+03   -0.11133E-01   -0.11111E-01   384   0.467E-01 0.968E-03
CGA: 157    -0.549432320783E+03   -0.28706E-02   -0.29272E-02   384   0.321E-01-0.187E-03
CGA: 158    -0.549439279019E+03   -0.69582E-02   -0.69476E-02   384   0.320E-01 0.112E-03
CGA: 159    -0.549440916163E+03   -0.16371E-02   -0.14935E-02   384   0.148E-01 0.258E-02
CGA: 160    -0.549444437775E+03   -0.35216E-02   -0.37078E-02   384   0.718E-01-0.186E-02
CGA: 161    -0.549447590428E+03   -0.31527E-02   -0.32394E-02   384   0.339E-01-0.866E-03
CGA: 162    -0.549448543411E+03   -0.95298E-03   -0.10197E-02   384   0.111E-01-0.175E-02
CGA: 163    -0.549449638270E+03   -0.10949E-02   -0.11142E-02   384   0.332E-01 0.175E-03
CGA: 164    -0.549452913471E+03   -0.32752E-02   -0.32251E-02   384   0.143E-01-0.694E-04
CGA: 165    -0.549453481141E+03   -0.56767E-03   -0.54018E-03   384   0.744E-02 0.604E-03
CGA: 166    -0.549454532671E+03   -0.10515E-02   -0.10576E-02   384   0.277E-01-0.352E-03
CGA: 167    -0.549456115621E+03   -0.15830E-02   -0.15998E-02   384   0.221E-01-0.333E-04
CGA: 168    -0.549456791529E+03   -0.67591E-03   -0.78628E-03   384   0.680E-02-0.239E-02
CGA: 169    -0.549457405747E+03   -0.61422E-03   -0.62439E-03   384   0.161E-01 0.217E-03
CGA: 170    -0.549459157412E+03   -0.17517E-02   -0.17329E-02   384   0.561E-02-0.442E-03
CGA: 171    -0.549459701569E+03   -0.54416E-03   -0.53565E-03   384   0.103E-01-0.120E-03
CGA: 172    -0.549461007239E+03   -0.13057E-02   -0.13091E-02   384   0.129E-01-0.155E-03
SDA: 173    -0.549461614035E+03   -0.60680E-03   -0.66895E-03   384   0.400E-02-0.655E-03
CGA: 174    -0.549463515743E+03   -0.19017E-02   -0.19834E-02   384   0.729E-02-0.279E-03
CGA: 175    -0.549463942292E+03   -0.42655E-03   -0.42498E-03   384   0.302E-02 0.793E-05
CGA: 176    -0.549465204640E+03   -0.12623E-02   -0.12827E-02   384   0.161E-02-0.890E-04
CGA: 177    -0.549465560172E+03   -0.35553E-03   -0.36349E-03   384   0.452E-02-0.801E-04
CGA: 178    -0.549465916200E+03   -0.35603E-03   -0.36099E-03   384   0.139E-02-0.175E-04
CGA: 179    -0.549466356804E+03   -0.44060E-03   -0.43019E-03   384   0.200E-02 0.635E-04
CGA: 180    -0.549466515635E+03   -0.15883E-03   -0.15371E-03   384   0.192E-02 0.433E-04
CGA: 181    -0.549467224265E+03   -0.70863E-03   -0.73356E-03   384   0.495E-02-0.144E-03
CGA: 182    -0.549467520335E+03   -0.29607E-03   -0.33452E-03   384   0.297E-02-0.276E-03
CGA: 183    -0.549468378926E+03   -0.85859E-03   -0.11358E-02   384   0.795E-02-0.143E-02
CGA: 184    -0.549468601516E+03   -0.22259E-03   -0.27079E-03   384   0.375E-02-0.420E-03
CGA: 185    -0.549468883156E+03   -0.28164E-03   -0.32138E-03   384   0.567E-02-0.140E-03
CGA: 186    -0.549469647630E+03   -0.76447E-03   -0.72968E-03   384   0.181E-02-0.347E-03
CGA: 187    -0.549470235422E+03   -0.58779E-03   -0.63653E-03   384   0.406E-02-0.365E-03
CGA: 188    -0.549470547175E+03   -0.31175E-03   -0.34761E-03   384   0.213E-02-0.913E-05
CGA: 189    -0.549471079708E+03   -0.53253E-03   -0.61873E-03   384   0.495E-02-0.697E-03
CGA: 190    -0.549471314698E+03   -0.23499E-03   -0.26704E-03   384   0.240E-02-0.193E-03
CGA: 191    -0.549471593688E+03   -0.27899E-03   -0.29695E-03   384   0.488E-02 0.924E-04
CGA: 192    -0.549472278599E+03   -0.68491E-03   -0.63071E-03   384   0.204E-02-0.186E-03
CGA: 193    -0.549472827008E+03   -0.54841E-03   -0.50898E-03   384   0.151E-02 0.320E-03
CGA: 194    -0.549473225202E+03   -0.39819E-03   -0.45184E-03   384   0.654E-02-0.527E-03
CGA: 195    -0.549473437256E+03   -0.21205E-03   -0.20324E-03   384   0.675E-02 0.167E-03
CGA: 196    -0.549473672030E+03   -0.23477E-03   -0.31679E-03   384   0.189E-02-0.144E-02
CGA: 197    -0.549474000645E+03   -0.32862E-03   -0.30902E-03   384   0.409E-02 0.294E-03
CGA: 198    -0.549474287337E+03   -0.28669E-03   -0.23949E-03   384   0.119E-02 0.731E-03
CGA: 199    -0.549474584951E+03   -0.29761E-03   -0.32046E-03   384   0.491E-02-0.274E-03
CGA: 200    -0.549474762397E+03   -0.17745E-03   -0.18295E-03   384   0.380E-02-0.799E-04
CGA: 201    -0.549474880498E+03   -0.11810E-03   -0.14293E-03   384   0.154E-02-0.545E-03
CGA: 202    -0.549475027451E+03   -0.14695E-03   -0.15279E-03   384   0.340E-02 0.335E-04
CGA: 203    -0.549475257099E+03   -0.22965E-03   -0.20676E-03   384   0.825E-03 0.256E-03
SDA: 204    -0.549475333523E+03   -0.76424E-04   -0.72845E-04   384   0.137E-02 0.125E-04
CGA: 205    -0.549475420339E+03   -0.86817E-04   -0.86897E-04   384   0.876E-03 0.260E-06
CGA: 206    -0.549475752927E+03   -0.33259E-03   -0.33112E-03   384   0.468E-03 0.658E-05
CGA: 207    -0.549476020695E+03   -0.26777E-03   -0.26786E-03   384   0.493E-03-0.331E-06
CGA: 208    -0.549476127282E+03   -0.10659E-03   -0.10645E-03   384   0.126E-02 0.239E-05
CGA: 209    -0.549476244691E+03   -0.11741E-03   -0.11658E-03   384   0.465E-03 0.564E-05
CGA: 210    -0.549476387571E+03   -0.14288E-03   -0.14220E-03   384   0.370E-03 0.492E-05
CGA: 211    -0.549476565191E+03   -0.17762E-03   -0.17876E-03   384   0.422E-03-0.482E-05
CGA: 212    -0.549476626197E+03   -0.61006E-04   -0.61472E-04   384   0.809E-03 0.272E-05
CGA: 213    -0.549476733396E+03   -0.10720E-03   -0.10541E-03   384   0.313E-03-0.107E-05
CGA: 214    -0.549476833009E+03   -0.99613E-04   -0.96483E-04   384   0.780E-03 0.225E-04
CGA: 215    -0.549476898340E+03   -0.65330E-04   -0.62046E-04   384   0.296E-03 0.302E-04
CGA: 216    -0.549477013320E+03   -0.11498E-03   -0.10961E-03   384   0.438E-03 0.298E-04
CGA: 217    -0.549477055324E+03   -0.42004E-04   -0.40143E-04   384   0.409E-03 0.135E-04
CGA: 218    -0.549477185229E+03   -0.12990E-03   -0.12717E-03   384   0.292E-03 0.195E-04
CGA: 219    -0.549477320247E+03   -0.13502E-03   -0.12182E-03   384   0.942E-03 0.627E-04
CGA: 220    -0.549477393756E+03   -0.73508E-04   -0.65653E-04   384   0.286E-03 0.109E-03
CGA: 221    -0.549477567178E+03   -0.17342E-03   -0.17219E-03   384   0.460E-03-0.769E-05
CGA: 222    -0.549477623035E+03   -0.55857E-04   -0.60166E-04   384   0.757E-03-0.504E-05
CGA: 223    -0.549477744526E+03   -0.12149E-03   -0.11310E-03   384   0.501E-03-0.142E-04
CGA: 224    -0.549477823612E+03   -0.79086E-04   -0.82633E-04   384   0.582E-03 0.255E-04
CGA: 225    -0.549477890384E+03   -0.66772E-04   -0.59291E-04   384   0.408E-03 0.440E-04
CGA: 226    -0.549478017919E+03   -0.12753E-03   -0.12100E-03   384   0.267E-03 0.630E-04
CGA: 227    -0.549478069209E+03   -0.51290E-04   -0.49243E-04   384   0.790E-03-0.103E-04
CGA: 228    -0.549478177375E+03   -0.10817E-03   -0.10561E-03   384   0.114E-02 0.335E-05
CGA: 229    -0.549478227901E+03   -0.50526E-04   -0.67896E-04   384   0.380E-03-0.222E-03
CGA: 230    -0.549478285274E+03   -0.57373E-04   -0.15262E-03   384   0.258E-02-0.420E-03
CGA: 231    -0.549478392477E+03   -0.10720E-03   -0.10887E-03   384   0.376E-03-0.333E-04
CGA: 232    -0.549478588111E+03   -0.19563E-03   -0.19628E-03   384   0.260E-03-0.221E-05
CGA: 233    -0.549478634769E+03   -0.46658E-04   -0.46736E-04   384   0.782E-03 0.504E-06
CGA: 234    -0.549478782412E+03   -0.14764E-03   -0.14729E-03   384   0.222E-03-0.619E-05
CGA: 235    -0.549478862764E+03   -0.80352E-04   -0.78663E-04   384   0.116E-02 0.105E-04
CGA: 236    -0.549479008360E+03   -0.14560E-03   -0.14058E-03   384   0.383E-03 0.190E-04
CGA: 237    -0.549479112543E+03   -0.10418E-03   -0.10241E-03   384   0.123E-02 0.246E-04
CGA: 238    -0.549479268134E+03   -0.15559E-03   -0.14584E-03   384   0.432E-03 0.421E-04
CGA: 239    -0.549479341749E+03   -0.73615E-04   -0.75225E-04   384   0.849E-03 0.974E-05
CGA: 240    -0.549479494056E+03   -0.15231E-03   -0.14744E-03   384   0.770E-03-0.319E-04
CGA: 241    -0.549479586474E+03   -0.92418E-04   -0.99097E-04   384   0.686E-03-0.230E-05
CGA: 242    -0.549479685952E+03   -0.99478E-04   -0.93284E-04   384   0.815E-03 0.870E-06
CGA: 243    -0.549479883049E+03   -0.19710E-03   -0.19051E-03   384   0.534E-03 0.125E-03
CGA: 244    -0.549479943082E+03   -0.60033E-04   -0.54847E-04   384   0.602E-03 0.366E-04
CGA: 245    -0.549480172278E+03   -0.22920E-03   -0.23405E-03   384   0.119E-02-0.492E-04
CGA: 246    -0.549480241279E+03   -0.69001E-04   -0.87369E-04   384   0.587E-03-0.148E-03
CGA: 247    -0.549480361351E+03   -0.12007E-03   -0.14448E-03   384   0.210E-02-0.242E-03
CGA: 248    -0.549480443412E+03   -0.82060E-04   -0.78095E-04   384   0.176E-02 0.773E-04
CGA: 249    -0.549480511398E+03   -0.67986E-04   -0.10257E-03   384   0.646E-03-0.470E-03
CGA: 250    -0.549480611376E+03   -0.99979E-04   -0.10786E-03   384   0.715E-03-0.139E-03
CGA: 251    -0.549480663277E+03   -0.51901E-04   -0.58977E-04   384   0.274E-03-0.217E-04
CGA: 252    -0.549480720871E+03   -0.57594E-04   -0.60102E-04   384   0.696E-03-0.430E-04
CGA: 253    -0.549480777362E+03   -0.56491E-04   -0.60122E-04   384   0.202E-03-0.114E-04
CGA: 254    -0.549480805121E+03   -0.27759E-04   -0.28518E-04   384   0.508E-03 0.422E-05
CGA: 255    -0.549480889010E+03   -0.83889E-04   -0.82501E-04   384   0.208E-03-0.216E-04
CGA: 256    -0.549480974785E+03   -0.85775E-04   -0.80301E-04   384   0.174E-03 0.226E-04
CGA: 257    -0.549481012611E+03   -0.37826E-04   -0.37907E-04   384   0.603E-03-0.107E-04
CGA: 258    -0.549481077556E+03   -0.64945E-04   -0.65934E-04   384   0.380E-03-0.249E-05
CGA: 259    -0.549481098488E+03   -0.20932E-04   -0.22543E-04   384   0.302E-03-0.214E-04
CGA: 260    -0.549481176612E+03   -0.78124E-04   -0.77747E-04   384   0.319E-03 0.198E-05
SDA: 261    -0.549481195395E+03   -0.18783E-04   -0.17511E-04   384   0.234E-03 0.177E-04
CGA: 262    -0.549481225459E+03   -0.30064E-04   -0.30073E-04   384   0.457E-03 0.509E-07
CGA: 263    -0.549481307210E+03   -0.81751E-04   -0.81753E-04   384   0.163E-03-0.645E-06
CGA: 264    -0.549481397406E+03   -0.90196E-04   -0.89584E-04   384   0.118E-03 0.172E-05
CGA: 265    -0.549481422491E+03   -0.25086E-04   -0.25097E-04   384   0.428E-03-0.407E-06
CGA: 266    -0.549481491512E+03   -0.69020E-04   -0.69208E-04   384   0.108E-03 0.163E-05
CGA: 267    -0.549481548477E+03   -0.56965E-04   -0.56095E-04   384   0.318E-03 0.304E-05
CGA: 268    -0.549481568619E+03   -0.20142E-04   -0.19593E-04   384   0.124E-03 0.657E-05
CGA: 269    -0.549481624940E+03   -0.56321E-04   -0.56352E-04   384   0.858E-04-0.194E-06
CGA: 270    -0.549481640253E+03   -0.15313E-04   -0.15381E-04   384   0.261E-03 0.372E-06
CGA: 271    -0.549481684628E+03   -0.44375E-04   -0.43928E-04   384   0.662E-04-0.289E-05
CGA: 272    -0.549481713714E+03   -0.29086E-04   -0.28388E-04   384   0.149E-03 0.312E-05
CGA: 273    -0.549481724116E+03   -0.10401E-04   -0.10059E-04   384   0.650E-04 0.353E-05
CGA: 274    -0.549481746162E+03   -0.22046E-04   -0.21915E-04   384   0.254E-04 0.869E-06
CGA: 275    -0.549481750890E+03   -0.47283E-05   -0.47041E-05   384   0.749E-04-0.302E-06
CGA: 276    -0.549481762468E+03   -0.11578E-04   -0.11631E-04   384   0.219E-04-0.202E-06
CGA: 277    -0.549481771461E+03   -0.89932E-05   -0.89108E-05   384   0.432E-04 0.408E-06
CGA: 278    -0.549481774163E+03   -0.27022E-05   -0.26571E-05   384   0.199E-04 0.451E-06
CGA: 279    -0.549481783515E+03   -0.93519E-05   -0.93790E-05   384   0.181E-04-0.115E-06
CGA: 280    -0.549481785712E+03   -0.21973E-05   -0.22142E-05   384   0.330E-04-0.675E-07
CGA: 281    -0.549481790986E+03   -0.52735E-05   -0.52502E-05   384   0.918E-05-0.656E-07
CGA: 282    -0.549481795891E+03   -0.49052E-05   -0.49100E-05   384   0.178E-04-0.336E-07
CGA: 283    -0.549481797238E+03   -0.13468E-05   -0.13707E-05   384   0.152E-04-0.827E-07
CGA: 284    -0.549481802654E+03   -0.54165E-05   -0.54190E-05   384   0.837E-05 0.567E-08
CGA: 285    -0.549481806652E+03   -0.39982E-05   -0.39220E-05   384   0.193E-04 0.326E-06
CGA: 286    -0.549481808025E+03   -0.13730E-05   -0.13567E-05   384   0.108E-04 0.290E-06
CGA: 287    -0.549481812710E+03   -0.46843E-05   -0.46240E-05   384   0.812E-05 0.319E-06
CGA: 288    -0.549481818164E+03   -0.54539E-05   -0.55122E-05   384   0.164E-04-0.178E-06
CGA: 289    -0.549481819520E+03   -0.13563E-05   -0.13879E-05   384   0.170E-04-0.250E-06
CGA: 290    -0.549481824958E+03   -0.54381E-05   -0.54730E-05   384   0.124E-04-0.384E-06
CGA: 291    -0.549481828869E+03   -0.39114E-05   -0.38708E-05   384   0.404E-04 0.477E-06
SDA: 292    -0.549481832225E+03   -0.33561E-05   -0.31909E-05   384   0.102E-04 0.177E-05
CGA: 293    -0.549481833789E+03   -0.15633E-05   -0.15655E-05   384   0.223E-04 0.929E-08
CGA: 294    -0.549481836465E+03   -0.26760E-05   -0.26736E-05   384   0.444E-05 0.177E-07
CGA: 295    -0.549481840056E+03   -0.35913E-05   -0.36282E-05   384   0.534E-05-0.652E-07
CGA: 296    -0.549481841109E+03   -0.10532E-05   -0.10517E-05   384   0.142E-04-0.321E-07
CGA: 297    -0.549481842542E+03   -0.14328E-05   -0.14180E-05   384   0.324E-05-0.292E-07
CGA: 298    -0.549481844777E+03   -0.22347E-05   -0.22787E-05   384   0.510E-05-0.955E-07
CGA: 299    -0.549481845292E+03   -0.51491E-06   -0.50879E-06   384   0.735E-05-0.120E-07
CGA: 300    -0.549481847117E+03   -0.18251E-05   -0.18244E-05   384   0.437E-05-0.520E-07
CGA: 301    -0.549481849665E+03   -0.25479E-05   -0.25742E-05   384   0.396E-05-0.808E-07
CGA: 302    -0.549481851222E+03   -0.15575E-05   -0.15674E-05   384   0.137E-04-0.722E-07
CGA: 303    -0.549481852178E+03   -0.95541E-06   -0.97062E-06   384   0.526E-05-0.200E-06
CGA: 304    -0.549481855212E+03   -0.30344E-05   -0.30715E-05   384   0.654E-05-0.123E-06
CGA: 305    -0.549481856390E+03   -0.11784E-05   -0.11914E-05   384   0.178E-04-0.722E-08
CGA: 306    -0.549481858923E+03   -0.25325E-05   -0.24769E-05   384   0.595E-05 0.223E-06
CGA: 307    -0.549481861620E+03   -0.26970E-05   -0.26307E-05   384   0.250E-04 0.379E-06
CGA: 308    -0.549481863726E+03   -0.21066E-05   -0.19965E-05   384   0.803E-05 0.136E-05
CGA: 309    -0.549481868942E+03   -0.52154E-05   -0.49171E-05   384   0.196E-04 0.981E-06
CGA: 310    -0.549481870653E+03   -0.17112E-05   -0.16159E-05   384   0.152E-04 0.125E-05
CGA: 311    -0.549481878350E+03   -0.76970E-05   -0.76052E-05   384   0.180E-04 0.395E-06
CGA: 312    -0.549481880874E+03   -0.25244E-05   -0.27530E-05   384   0.461E-04-0.555E-06
CGA: 313    -0.549481890441E+03   -0.95661E-05   -0.87966E-05   384   0.239E-04 0.344E-06
CGA: 314    -0.549481901063E+03   -0.10623E-04   -0.95498E-05   384   0.547E-04 0.712E-05
CGA: 315    -0.549481905805E+03   -0.47420E-05   -0.37860E-05   384   0.238E-04 0.166E-04
CGA: 316    -0.549481917137E+03   -0.11331E-04   -0.13056E-04   384   0.190E-03-0.108E-04
CGA: 317    -0.549481919536E+03   -0.23993E-05   -0.17579E-05   384   0.199E-03 0.397E-04
CGA: 318    -0.549481925455E+03   -0.59194E-05   -0.13758E-04   384   0.855E-04-0.104E-03
CGA: 319    -0.549481940524E+03   -0.15069E-04   -0.15041E-04   384   0.168E-03-0.796E-07
CGA: 320    -0.549481953829E+03   -0.13305E-04   -0.13311E-04   384   0.185E-04-0.194E-06
CGA: 321    -0.549481967738E+03   -0.13909E-04   -0.14102E-04   384   0.248E-04-0.379E-06
CGA: 322    -0.549481984124E+03   -0.16386E-04   -0.16741E-04   384   0.465E-04-0.880E-06
CGA: 323    -0.549481987864E+03   -0.37397E-05   -0.37436E-05   384   0.474E-04-0.416E-06
CGA: 324    -0.549482004056E+03   -0.16192E-04   -0.16267E-04   384   0.202E-04-0.101E-05
CGA: 325    -0.549482008348E+03   -0.42917E-05   -0.43027E-05   384   0.696E-04-0.948E-07
CGA: 326    -0.549482018943E+03   -0.10595E-04   -0.10414E-04   384   0.194E-04-0.214E-07
CGA: 327    -0.549482025434E+03   -0.64910E-05   -0.64613E-05   384   0.818E-04 0.287E-06
CGA: 328    -0.549482033395E+03   -0.79603E-05   -0.77128E-05   384   0.161E-04 0.143E-05
CGA: 329    -0.549482040305E+03   -0.69105E-05   -0.67978E-05   384   0.725E-04 0.639E-06
CGA: 330    -0.549482046658E+03   -0.63534E-05   -0.61265E-05   384   0.172E-04 0.199E-05
CGA: 331    -0.549482055110E+03   -0.84518E-05   -0.82050E-05   384   0.723E-04 0.116E-05
CGA: 332    -0.549482061076E+03   -0.59661E-05   -0.56920E-05   384   0.187E-04 0.313E-05
CGA: 333    -0.549482069911E+03   -0.88343E-05   -0.85594E-05   384   0.664E-04 0.143E-05
CGA: 334    -0.549482075147E+03   -0.52363E-05   -0.49605E-05   384   0.155E-04 0.350E-05
CGA: 335    -0.549482082621E+03   -0.74744E-05   -0.72144E-05   384   0.597E-04 0.132E-05
CGA: 336    -0.549482087639E+03   -0.50172E-05   -0.47487E-05   384   0.161E-04 0.323E-05
CGA: 337    -0.549482095235E+03   -0.75960E-05   -0.73153E-05   384   0.606E-04 0.149E-05
CGA: 338    -0.549482100508E+03   -0.52735E-05   -0.49572E-05   384   0.183E-04 0.365E-05
CGA: 339    -0.549482110916E+03   -0.10408E-04   -0.96787E-05   384   0.893E-04 0.296E-05
CGA: 340    -0.549482119908E+03   -0.89913E-05   -0.81250E-05   384   0.293E-04 0.913E-05
CGA: 341    -0.549482133135E+03   -0.13227E-04   -0.12474E-04   384   0.116E-03 0.497E-05
CGA: 342    -0.549482145715E+03   -0.12581E-04   -0.10799E-04   384   0.353E-04 0.183E-04
CGA: 343    -0.549482166969E+03   -0.21253E-04   -0.18640E-04   384   0.135E-03 0.119E-04
CGA: 344    -0.549482181197E+03   -0.14228E-04   -0.11628E-04   384   0.477E-04 0.350E-04
CGA: 345    -0.549482230117E+03   -0.48920E-04   -0.46171E-04   384   0.173E-03-0.574E-05
CGA: 346    -0.549482253016E+03   -0.22898E-04   -0.27315E-04   384   0.123E-03 0.261E-05
CGA: 347    -0.549482277029E+03   -0.24013E-04   -0.17782E-04   384   0.243E-03 0.245E-04
CGA: 348    -0.549482321066E+03   -0.44038E-04   -0.34344E-04   384   0.317E-03 0.684E-04
SDA: 349    -0.549482353874E+03   -0.32808E-04   -0.41123E-04   384   0.954E-04-0.189E-04
CGA: 350    -0.549482396243E+03   -0.42368E-04   -0.42738E-04   384   0.498E-03-0.184E-05
CGA: 351    -0.549482433764E+03   -0.37521E-04   -0.37095E-04   384   0.106E-03 0.399E-05
CGA: 352    -0.549482496862E+03   -0.63099E-04   -0.62947E-04   384   0.165E-03 0.489E-06
CGA: 353    -0.549482507437E+03   -0.10575E-04   -0.10358E-04   384   0.106E-03 0.258E-05
CGA: 354    -0.549482555808E+03   -0.48370E-04   -0.48470E-04   384   0.842E-04-0.570E-06
CGA: 355    -0.549482564010E+03   -0.82027E-05   -0.82779E-05   384   0.132E-03-0.755E-06
CGA: 356    -0.549482600883E+03   -0.36873E-04   -0.36910E-04   384   0.497E-04-0.139E-05
CGA: 357    -0.549482619856E+03   -0.18973E-04   -0.19256E-04   384   0.266E-03-0.189E-05
CGA: 358    -0.549482639765E+03   -0.19909E-04   -0.20685E-04   384   0.380E-04-0.833E-05
CGA: 359    -0.549482657020E+03   -0.17255E-04   -0.16940E-04   384   0.163E-03 0.145E-05
CGA: 360    -0.549482667098E+03   -0.10078E-04   -0.98176E-05   384   0.274E-04 0.341E-05
CGA: 361    -0.549482691747E+03   -0.24649E-04   -0.25780E-04   384   0.971E-04-0.214E-05
CGA: 362    -0.549482697169E+03   -0.54213E-05   -0.55786E-05   384   0.482E-04-0.238E-05
CGA: 363    -0.549482730879E+03   -0.33710E-04   -0.34586E-04   384   0.459E-04-0.235E-05
CGA: 364    -0.549482757324E+03   -0.26446E-04   -0.25082E-04   384   0.182E-03 0.477E-05
CGA: 365    -0.549482769508E+03   -0.12184E-04   -0.10945E-04   384   0.414E-04 0.202E-04
CGA: 366    -0.549482799292E+03   -0.29785E-04   -0.29875E-04   384   0.552E-04-0.557E-06
CGA: 367    -0.549482807097E+03   -0.78043E-05   -0.82471E-05   384   0.146E-03-0.141E-05
CGA: 368    -0.549482844461E+03   -0.37364E-04   -0.36296E-04   384   0.680E-04-0.410E-05
CGA: 369    -0.549482854161E+03   -0.97004E-05   -0.10563E-04   384   0.157E-03-0.217E-05
CGA: 370    -0.549482883480E+03   -0.29318E-04   -0.26594E-04   384   0.825E-04 0.618E-05
CGA: 371    -0.549482895774E+03   -0.12295E-04   -0.13638E-04   384   0.168E-03-0.302E-05
CGA: 372    -0.549482924545E+03   -0.28771E-04   -0.25203E-04   384   0.947E-04 0.112E-04
CGA: 373    -0.549482941385E+03   -0.16839E-04   -0.18533E-04   384   0.198E-03-0.104E-06
CGA: 374    -0.549482966454E+03   -0.25069E-04   -0.20764E-04   384   0.647E-04 0.305E-04
CGA: 375    -0.549482993214E+03   -0.26761E-04   -0.25226E-04   384   0.227E-03 0.156E-04
CGA: 376    -0.549483016437E+03   -0.23222E-04   -0.18860E-04   384   0.484E-04 0.563E-04
CGA: 377    -0.549483053813E+03   -0.37377E-04   -0.32405E-04   384   0.864E-04 0.166E-04
CGA: 378    -0.549483061968E+03   -0.81544E-05   -0.73252E-05   384   0.663E-04 0.115E-04
CGA: 379    -0.549483094927E+03   -0.32960E-04   -0.36698E-04   384   0.390E-03-0.180E-04
SDA: 380    -0.549483107670E+03   -0.12743E-04   -0.16810E-04   384   0.129E-03-0.546E-04
CGA: 381    -0.549483118655E+03   -0.10985E-04   -0.11029E-04   384   0.147E-03-0.346E-06
CGA: 382    -0.549483148865E+03   -0.30211E-04   -0.30200E-04   384   0.468E-04-0.455E-07
CGA: 383    -0.549483176781E+03   -0.27916E-04   -0.28146E-04   384   0.520E-04-0.680E-06
CGA: 384    -0.549483181379E+03   -0.45975E-05   -0.46142E-05   384   0.674E-04-0.317E-06
CGA: 385    -0.549483210895E+03   -0.29516E-04   -0.29745E-04   384   0.326E-04-0.120E-05
CGA: 386    -0.549483232141E+03   -0.21246E-04   -0.20810E-04   384   0.248E-03 0.128E-05
CGA: 387    -0.549483251273E+03   -0.19132E-04   -0.18297E-04   384   0.341E-04 0.824E-05
CGA: 388    -0.549483276672E+03   -0.25399E-04   -0.24687E-04   384   0.147E-03 0.189E-05
CGA: 389    -0.549483285878E+03   -0.92059E-05   -0.87504E-05   384   0.346E-04 0.621E-05
CGA: 390    -0.549483311454E+03   -0.25577E-04   -0.25348E-04   384   0.280E-04 0.585E-06
CGA: 391    -0.549483316477E+03   -0.50227E-05   -0.49383E-05   384   0.798E-04 0.496E-07
CGA: 392    -0.549483328171E+03   -0.11694E-04   -0.11852E-04   384   0.148E-04-0.867E-06
CGA: 393    -0.549483336973E+03   -0.88019E-05   -0.85227E-05   384   0.903E-04 0.950E-06
CGA: 394    -0.549483343273E+03   -0.62999E-05   -0.60598E-05   384   0.174E-04 0.319E-05
CGA: 395    -0.549483359209E+03   -0.15936E-04   -0.15620E-04   384   0.216E-04 0.598E-06
CGA: 396    -0.549483366369E+03   -0.71598E-05   -0.71553E-05   384   0.105E-03-0.509E-06
CGA: 397    -0.549483376219E+03   -0.98505E-05   -0.10447E-04   384   0.256E-04-0.448E-05
CGA: 398    -0.549483388790E+03   -0.12571E-04   -0.12081E-04   384   0.125E-03 0.231E-05
CGA: 399    -0.549483397158E+03   -0.83681E-05   -0.75040E-05   384   0.210E-04 0.138E-04
CGA: 400    -0.549483411258E+03   -0.14100E-04   -0.15181E-04   384   0.138E-03-0.339E-05
CGA: 401    -0.549483417438E+03   -0.61799E-05   -0.71239E-05   384   0.346E-04-0.133E-04
CGA: 402    -0.549483423042E+03   -0.56037E-05   -0.58646E-05   384   0.120E-03-0.302E-06
CGA: 403    -0.549483435038E+03   -0.11995E-04   -0.10787E-04   384   0.206E-04 0.109E-04
CGA: 404    -0.549483439566E+03   -0.45287E-05   -0.43832E-05   384   0.892E-04 0.481E-07
CGA: 405    -0.549483453444E+03   -0.13878E-04   -0.13915E-04   384   0.816E-04 0.256E-06
CGA: 406    -0.549483457049E+03   -0.36041E-05   -0.41795E-05   384   0.392E-04-0.981E-05
CGA: 407    -0.549483472584E+03   -0.15536E-04   -0.15202E-04   384   0.473E-04 0.133E-05
CGA: 408    -0.549483475694E+03   -0.31097E-05   -0.28471E-05   384   0.388E-04 0.403E-05
CGA: 409    -0.549483487187E+03   -0.11493E-04   -0.11504E-04   384   0.118E-03-0.178E-05
CGA: 410    -0.549483492469E+03   -0.52815E-05   -0.62960E-05   384   0.248E-04-0.152E-04
SDA: 411    -0.549483498272E+03   -0.58034E-05   -0.57754E-05   384   0.102E-03 0.187E-05
CGA: 412    -0.549483502718E+03   -0.44453E-05   -0.44177E-05   384   0.194E-04 0.551E-06
CGA: 413    -0.549483513440E+03   -0.10722E-04   -0.10705E-04   384   0.108E-04 0.609E-07
CGA: 414    -0.549483521426E+03   -0.79859E-05   -0.80339E-05   384   0.216E-04-0.940E-07
CGA: 415    -0.549483523166E+03   -0.17402E-05   -0.17260E-05   384   0.222E-04 0.921E-07
CGA: 416    -0.549483530989E+03   -0.78228E-05   -0.78166E-05   384   0.902E-05 0.694E-07
CGA: 417    -0.549483537114E+03   -0.61255E-05   -0.60904E-05   384   0.442E-04 0.103E-06
CGA: 418    -0.549483539673E+03   -0.25584E-05   -0.25145E-05   384   0.102E-04 0.557E-06
CGA: 419    -0.549483547089E+03   -0.74159E-05   -0.74278E-05   384   0.140E-04-0.335E-07
CGA: 420    -0.549483548361E+03   -0.12728E-05   -0.12870E-05   384   0.197E-04-0.117E-06
CGA: 421    -0.549483555847E+03   -0.74857E-05   -0.75031E-05   384   0.654E-05-0.152E-06
CGA: 422    -0.549483559043E+03   -0.31962E-05   -0.32278E-05   384   0.385E-04-0.142E-06
CGA: 423    -0.549483561673E+03   -0.26298E-05   -0.26988E-05   384   0.615E-05-0.712E-06
CGA: 424    -0.549483566411E+03   -0.47375E-05   -0.46774E-05   384   0.101E-04 0.136E-06
CGA: 425    -0.549483567137E+03   -0.72656E-06   -0.71854E-06   384   0.843E-05 0.130E-06
CGA: 426    -0.549483570573E+03   -0.34355E-05   -0.34249E-05   384   0.523E-05 0.110E-06
CGA: 427    -0.549483571590E+03   -0.10171E-05   -0.10252E-05   384   0.182E-04 0.192E-08
CGA: 428    -0.549483574377E+03   -0.27874E-05   -0.27588E-05   384   0.396E-05 0.117E-06
CGA: 429    -0.549483576363E+03   -0.19854E-05   -0.20001E-05   384   0.209E-04-0.601E-07
CGA: 430    -0.549483577675E+03   -0.13127E-05   -0.13599E-05   384   0.426E-05-0.430E-06
CGA: 431    -0.549483580775E+03   -0.30999E-05   -0.30501E-05   384   0.670E-05 0.120E-06
CGA: 432    -0.549483581223E+03   -0.44734E-06   -0.44250E-06   384   0.498E-05 0.883E-07
CGA: 433    -0.549483583811E+03   -0.25882E-05   -0.25766E-05   384   0.479E-05 0.582E-07
CGA: 434    -0.549483584149E+03   -0.33771E-06   -0.34408E-06   384   0.446E-05-0.475E-07
CGA: 435    -0.549483586479E+03   -0.23301E-05   -0.23308E-05   384   0.327E-05-0.749E-09
CGA: 436    -0.549483587188E+03   -0.70918E-06   -0.70599E-06   384   0.121E-04 0.175E-07
CGA: 437    -0.549483588779E+03   -0.15908E-05   -0.16235E-05   384   0.292E-05-0.548E-07
CGA: 438    -0.549483590387E+03   -0.16083E-05   -0.15809E-05   384   0.115E-04 0.106E-06
CGA: 439    -0.549483591052E+03   -0.66528E-06   -0.64465E-06   384   0.258E-05 0.322E-06
CGA: 440    -0.549483593774E+03   -0.27219E-05   -0.27966E-05   384   0.108E-04-0.137E-06
CGA: 441    -0.549483594344E+03   -0.57047E-06   -0.59292E-06   384   0.433E-05-0.317E-06
SDA: 442    -0.549483597189E+03   -0.28446E-05   -0.28758E-05   384   0.406E-05-0.943E-07
CGA: 443    -0.549483598478E+03   -0.12887E-05   -0.12895E-05   384   0.890E-05 0.249E-07
CGA: 444    -0.549483599027E+03   -0.54876E-06   -0.55008E-06   384   0.269E-05 0.347E-08
CGA: 445    -0.549483600641E+03   -0.16148E-05   -0.16255E-05   384   0.140E-05-0.383E-07
CGA: 446    -0.549483601410E+03   -0.76918E-06   -0.77508E-06   384   0.103E-04-0.252E-07
   1 F= -.54948360E+03 E0= -.54948360E+03  d E =-.127603E-12
       N       E                     dE             d eps       ncg     rms          ort
SDA:   1    -0.549338226356E+03    0.14537E+00    0.00000E+00   384   0.349E+00 0.000E+00
CGA:   2    -0.549453328857E+03   -0.11510E+00   -0.11510E+00   384   0.117E+00-0.288E-03
CGA:   3    -0.549473492128E+03   -0.20163E-01   -0.20137E-01   384   0.645E-01 0.935E-04
CGA:   4    -0.549477053435E+03   -0.35613E-02   -0.38706E-02   384   0.282E-01-0.454E-02
CGA:   5    -0.549480628780E+03   -0.35753E-02   -0.35587E-02   384   0.541E-02 0.751E-04
CGA:   6    -0.549481224830E+03   -0.59605E-03   -0.59910E-03   384   0.599E-02-0.353E-04
CGA:   7    -0.549481714665E+03   -0.48983E-03   -0.48673E-03   384   0.856E-03 0.294E-04
CGA:   8    -0.549481876050E+03   -0.16139E-03   -0.16156E-03   384   0.731E-03 0.102E-05
CGA:   9    -0.549481920720E+03   -0.44670E-04   -0.44420E-04   384   0.241E-03 0.301E-05
CGA:  10    -0.549481955316E+03   -0.34596E-04   -0.34662E-04   384   0.120E-03 0.380E-06
CGA:  11    -0.549481969604E+03   -0.14288E-04   -0.14263E-04   384   0.128E-03-0.745E-07
CGA:  12    -0.549481981404E+03   -0.11800E-04   -0.11850E-04   384   0.506E-04 0.148E-06
CGA:  13    -0.549481987957E+03   -0.65529E-05   -0.65469E-05   384   0.339E-04-0.388E-07
CGA:  14    -0.549481991622E+03   -0.36652E-05   -0.36889E-05   384   0.247E-04 0.156E-06
CGA:  15    -0.549481993622E+03   -0.19996E-05   -0.19957E-05   384   0.767E-05-0.128E-07
CGA:  16    -0.549481994677E+03   -0.10555E-05   -0.10634E-05   384   0.583E-05 0.848E-07
CGA:  17    -0.549481995170E+03   -0.49217E-06   -0.48816E-06   384   0.299E-05-0.268E-07
   2 F= -.54948200E+03 E0= -.54948200E+03  d E =-.316610E-11
       N       E                     dE             d eps       ncg     rms          ort
SDA:   1    -0.548912750023E+03    0.56924E+00    0.00000E+00   384   0.135E+01 0.000E+00
CGA:   2    -0.549356101468E+03   -0.44335E+00   -0.44275E+00   384   0.703E+00 0.455E-02
CGA:   3    -0.549411118010E+03   -0.55017E-01   -0.50846E-01   384   0.486E+00 0.442E-01
CGA:   4    -0.549463265699E+03   -0.52148E-01   -0.52769E-01   384   0.797E-01-0.298E-02
CGA:   5    -0.549476714462E+03   -0.13449E-01   -0.13431E-01   384   0.516E-01-0.131E-03
CGA:   6    -0.549479429420E+03   -0.27150E-02   -0.28145E-02   384   0.138E-01-0.146E-02
CGA:   7    -0.549481795619E+03   -0.23662E-02   -0.23653E-02   384   0.639E-02-0.199E-04
CGA:   8    -0.549482227348E+03   -0.43173E-03   -0.43601E-03   384   0.361E-02-0.435E-04
CGA:   9    -0.549482803215E+03   -0.57587E-03   -0.57558E-03   384   0.153E-02-0.555E-05
CGA:  10    -0.549482955876E+03   -0.15266E-03   -0.15291E-03   384   0.123E-02-0.732E-06
CGA:  11    -0.549483072370E+03   -0.11649E-03   -0.11622E-03   384   0.572E-03-0.159E-06
CGA:  12    -0.549483151555E+03   -0.79185E-04   -0.79216E-04   384   0.332E-03 0.418E-06
CGA:  13    -0.549483181302E+03   -0.29747E-04   -0.29673E-04   384   0.268E-03-0.339E-06
CGA:  14    -0.549483214676E+03   -0.33374E-04   -0.33387E-04   384   0.850E-04 0.127E-06
CGA:  15    -0.549483224929E+03   -0.10253E-04   -0.10244E-04   384   0.825E-04-0.158E-06
CGA:  16    -0.549483231248E+03   -0.63189E-05   -0.63492E-05   384   0.215E-04 0.272E-06
CGA:  17    -0.549483234188E+03   -0.29398E-05   -0.29423E-05   384   0.113E-04 0.950E-07
CGA:  18    -0.549483235207E+03   -0.10190E-05   -0.10318E-05   384   0.813E-05 0.177E-06
CGA:  19    -0.549483235987E+03   -0.77972E-06   -0.78466E-06   384   0.290E-05 0.776E-07
   3 F= -.54948324E+03 E0= -.54948324E+03  d E =-.482742E-12
       N       E                     dE             d eps       ncg     rms          ort
SDA:   1    -0.549197209319E+03    0.28603E+00    0.00000E+00   384   0.689E+00 0.000E+00
CGA:   2    -0.549423664336E+03   -0.22646E+00   -0.22653E+00   384   0.308E+00-0.314E-03
CGA:   3    -0.549451969158E+03   -0.28305E-01   -0.27659E-01   384   0.277E+00 0.286E-02
CGA:   4    -0.549474313340E+03   -0.22344E-01   -0.22692E-01   384   0.386E-01-0.198E-02
CGA:   5    -0.549481391378E+03   -0.70780E-02   -0.70800E-02   384   0.160E-01-0.471E-04
CGA:   6    -0.549482359628E+03   -0.96825E-03   -0.98135E-03   384   0.783E-02-0.139E-03
CGA:   7    -0.549483519749E+03   -0.11601E-02   -0.11600E-02   384   0.167E-02-0.248E-04
CGA:   8    -0.549483717063E+03   -0.19731E-03   -0.19749E-03   384   0.209E-02 0.230E-05
CGA:   9    -0.549483902096E+03   -0.18503E-03   -0.18477E-03   384   0.398E-03 0.216E-06
CGA:  10    -0.549483958385E+03   -0.56289E-04   -0.56296E-04   384   0.340E-03 0.992E-06
CGA:  11    -0.549483990106E+03   -0.31721E-04   -0.31680E-04   384   0.229E-03-0.294E-06
CGA:  12    -0.549484012850E+03   -0.22744E-04   -0.22762E-04   384   0.841E-04 0.337E-06
CGA:  13    -0.549484026739E+03   -0.13889E-04   -0.13894E-04   384   0.918E-04-0.214E-06
CGA:  14    -0.549484033390E+03   -0.66502E-05   -0.66808E-05   384   0.353E-04 0.393E-06
CGA:  15    -0.549484037986E+03   -0.45962E-05   -0.45980E-05   384   0.154E-04 0.149E-06
CGA:  16    -0.549484039768E+03   -0.17823E-05   -0.17854E-05   384   0.113E-04 0.124E-06
CGA:  17    -0.549484040624E+03   -0.85555E-06   -0.84871E-06   384   0.395E-05-0.103E-06
   4 F= -.54948404E+03 E0= -.54948404E+03  d E =-.120619E-13
       N       E                     dE             d eps       ncg     rms          ort
SDA:   1    -0.548902182080E+03    0.58186E+00    0.00000E+00   384   0.141E+01 0.000E+00
CGA:   2    -0.549354470733E+03   -0.45229E+00   -0.45295E+00   384   0.732E+00-0.334E-02
CGA:   3    -0.549407843541E+03   -0.53373E-01   -0.50818E-01   384   0.488E+00 0.199E-01
CGA:   4    -0.549461589695E+03   -0.53746E-01   -0.53979E-01   384   0.794E-01 0.145E-02
CGA:   5    -0.549475899485E+03   -0.14310E-01   -0.14322E-01   384   0.449E-01-0.225E-03
CGA:   6    -0.549478338357E+03   -0.24389E-02   -0.24872E-02   384   0.157E-01-0.571E-03
CGA:   7    -0.549481013708E+03   -0.26754E-02   -0.26764E-02   384   0.337E-02-0.198E-04
CGA:   8    -0.549481402311E+03   -0.38860E-03   -0.38890E-03   384   0.413E-02 0.549E-05
CGA:   9    -0.549481765127E+03   -0.36282E-03   -0.36073E-03   384   0.770E-03-0.128E-04
CGA:  10    -0.549481885077E+03   -0.11995E-03   -0.11992E-03   384   0.685E-03 0.151E-05
CGA:  11    -0.549481943307E+03   -0.58230E-04   -0.58150E-04   384   0.444E-03-0.373E-06
CGA:  12    -0.549481996481E+03   -0.53174E-04   -0.53187E-04   384   0.167E-03 0.781E-06
CGA:  13    -0.549482021546E+03   -0.25065E-04   -0.25073E-04   384   0.220E-03-0.441E-06
CGA:  14    -0.549482038373E+03   -0.16827E-04   -0.16862E-04   384   0.564E-04 0.476E-06
CGA:  15    -0.549482047635E+03   -0.92620E-05   -0.92624E-05   384   0.392E-04-0.157E-08
CGA:  16    -0.549482050611E+03   -0.29757E-05   -0.29906E-05   384   0.208E-04 0.256E-06
CGA:  17    -0.549482052884E+03   -0.22735E-05   -0.22730E-05   384   0.683E-05-0.254E-07
CGA:  18    -0.549482053810E+03   -0.92539E-06   -0.92482E-06   384   0.534E-05 0.998E-07
   5 F= -.54948205E+03 E0= -.54948205E+03  d E =-.354503E-13
       N       E                     dE             d eps       ncg     rms          ort
SDA:   1    -0.549173132948E+03    0.30892E+00    0.00000E+00   384   0.727E+00 0.000E+00
CGA:   2    -0.549403362315E+03   -0.23023E+00   -0.23104E+00   384   0.266E+00-0.448E-02
CGA:   3    -0.549448659578E+03   -0.45297E-01   -0.45257E-01   384   0.160E+00 0.838E-03
CGA:   4    -0.549457600409E+03   -0.89408E-02   -0.86354E-02   384   0.513E-01 0.391E-02
CGA:   5    -0.549465700960E+03   -0.81006E-02   -0.80972E-02   384   0.966E-02 0.102E-03
CGA:   6    -0.549467591504E+03   -0.18905E-02   -0.18917E-02   384   0.103E-01-0.154E-04
CGA:   7    -0.549468122794E+03   -0.53129E-03   -0.53714E-03   384   0.193E-02-0.677E-04
CGA:   8    -0.549468545650E+03   -0.42286E-03   -0.42272E-03   384   0.875E-03 0.168E-05
CGA:   9    -0.549468630002E+03   -0.84353E-04   -0.84455E-04   384   0.729E-03 0.139E-05
CGA:  10    -0.549468695332E+03   -0.65329E-04   -0.65289E-04   384   0.320E-03-0.194E-06
CGA:  11    -0.549468750005E+03   -0.54673E-04   -0.54646E-04   384   0.157E-03 0.702E-06
CGA:  12    -0.549468765770E+03   -0.15765E-04   -0.15754E-04   384   0.167E-03-0.197E-06
CGA:  13    -0.549468784366E+03   -0.18596E-04   -0.18609E-04   384   0.527E-04 0.540E-06
CGA:  14    -0.549468793341E+03   -0.89750E-05   -0.89830E-05   384   0.458E-04-0.204E-06
CGA:  15    -0.549468796389E+03   -0.30484E-05   -0.30622E-05   384   0.198E-04 0.196E-06
CGA:  16    -0.549468799444E+03   -0.30543E-05   -0.30530E-05   384   0.746E-05 0.661E-07
CGA:  17    -0.549468800410E+03   -0.96612E-06   -0.96670E-06   384   0.728E-05 0.179E-06
   6 F= -.54946880E+03 E0= -.54946880E+03  d E =-.819126E-14
       N       E                     dE             d eps       ncg     rms          ort
SDA:   1    -0.548873965820E+03    0.59483E+00    0.00000E+00   384   0.134E+01 0.000E+00
CGA:   2    -0.549302166559E+03   -0.42820E+00   -0.42511E+00   384   0.802E+00 0.184E-01
CGA:   3    -0.549379107971E+03   -0.76941E-01   -0.78626E-01   384   0.791E+00 0.307E-02
CGA:   4    -0.549444631204E+03   -0.65523E-01   -0.64231E-01   384   0.110E+00 0.482E-02
CGA:   5    -0.549464433207E+03   -0.19802E-01   -0.19806E-01   384   0.235E-01-0.433E-04
CGA:   6    -0.549467995747E+03   -0.35625E-02   -0.35648E-02   384   0.341E-01-0.910E-04
CGA:   7    -0.549470161694E+03   -0.21659E-02   -0.21820E-02   384   0.593E-02-0.143E-03
CGA:   8    -0.549471575320E+03   -0.14136E-02   -0.14144E-02   384   0.265E-02-0.780E-05
CGA:   9    -0.549472013745E+03   -0.43843E-03   -0.43836E-03   384   0.325E-02 0.146E-05
CGA:  10    -0.549472248355E+03   -0.23461E-03   -0.23355E-03   384   0.151E-02 0.466E-05
CGA:  11    -0.549472454256E+03   -0.20590E-03   -0.20590E-03   384   0.555E-03 0.175E-05
CGA:  12    -0.549472556740E+03   -0.10248E-03   -0.10240E-03   384   0.574E-03 0.173E-05
CGA:  13    -0.549472589576E+03   -0.32836E-04   -0.33037E-04   384   0.155E-03 0.701E-06
CGA:  14    -0.549472616542E+03   -0.26965E-04   -0.26925E-04   384   0.541E-04 0.105E-05
CGA:  15    -0.549472622831E+03   -0.62894E-05   -0.62993E-05   384   0.497E-04 0.434E-06
CGA:  16    -0.549472626516E+03   -0.36851E-05   -0.36897E-05   384   0.160E-04 0.576E-07
CGA:  17    -0.549472629489E+03   -0.29728E-05   -0.29477E-05   384   0.868E-05 0.488E-06
CGA:  18    -0.549472630290E+03   -0.80102E-06   -0.80811E-06   384   0.801E-05 0.153E-06
   7 F= -.54947263E+03 E0= -.54947263E+03  d E =-.822360E-13
       N       E                     dE             d eps       ncg     rms          ort
SDA:   1    -0.549182126777E+03    0.29050E+00    0.00000E+00   384   0.742E+00 0.000E+00
CGA:   2    -0.549407351096E+03   -0.22522E+00   -0.22574E+00   384   0.370E+00-0.311E-02
CGA:   3    -0.549438851647E+03   -0.31501E-01   -0.30772E-01   384   0.318E+00 0.243E-02
CGA:   4    -0.549468424473E+03   -0.29573E-01   -0.29808E-01   384   0.464E-01 0.185E-03
CGA:   5    -0.549476552811E+03   -0.81283E-02   -0.81337E-02   384   0.271E-01-0.103E-03
CGA:   6    -0.549478103655E+03   -0.15508E-02   -0.15743E-02   384   0.109E-01-0.239E-03
CGA:   7    -0.549479931804E+03   -0.18281E-02   -0.18258E-02   384   0.236E-02-0.730E-06
CGA:   8    -0.549480293464E+03   -0.36166E-03   -0.36148E-03   384   0.336E-02 0.809E-05
CGA:   9    -0.549480533430E+03   -0.23997E-03   -0.23956E-03   384   0.718E-03 0.377E-05
CGA:  10    -0.549480648777E+03   -0.11535E-03   -0.11529E-03   384   0.528E-03 0.209E-05
CGA:  11    -0.549480710297E+03   -0.61520E-04   -0.61507E-04   384   0.498E-03-0.315E-06
CGA:  12    -0.549480750246E+03   -0.39949E-04   -0.40019E-04   384   0.147E-03 0.752E-06
CGA:  13    -0.549480777702E+03   -0.27455E-04   -0.27490E-04   384   0.131E-03-0.596E-06
CGA:  14    -0.549480787149E+03   -0.94476E-05   -0.94688E-05   384   0.579E-04 0.259E-06
CGA:  15    -0.549480793705E+03   -0.65559E-05   -0.65528E-05   384   0.264E-04-0.166E-06
CGA:  16    -0.549480797007E+03   -0.33024E-05   -0.33031E-05   384   0.185E-04 0.132E-06
CGA:  17    -0.549480798324E+03   -0.13168E-05   -0.13090E-05   384   0.590E-05-0.123E-06
CGA:  18    -0.549480799198E+03   -0.87372E-06   -0.87286E-06   384   0.374E-05 0.431E-07
   8 F= -.54948080E+03 E0= -.54948080E+03  d E =-.128672E-10
       N       E                     dE             d eps       ncg     rms          ort
SDA:   1    -0.548908883620E+03    0.57191E+00    0.00000E+00   384   0.136E+01 0.000E+00
CGA:   2    -0.549357401814E+03   -0.44852E+00   -0.44745E+00   384   0.522E+00 0.626E-02
CGA:   3    -0.549447976428E+03   -0.90575E-01   -0.90525E-01   384   0.273E+00 0.926E-03
CGA:   4    -0.549463638973E+03   -0.15663E-01   -0.14973E-01   384   0.100E+00 0.840E-02
CGA:   5    -0.549478181107E+03   -0.14542E-01   -0.14541E-01   384   0.162E-01 0.108E-03
CGA:   6    -0.549481875612E+03   -0.36945E-02   -0.36947E-02   384   0.421E-02-0.264E-05
CGA:   7    -0.549482692577E+03   -0.81697E-03   -0.81657E-03   384   0.603E-02 0.552E-05
CGA:   8    -0.549483039438E+03   -0.34686E-03   -0.34455E-03   384   0.127E-02 0.215E-04
CGA:   9    -0.549483315497E+03   -0.27606E-03   -0.27619E-03   384   0.768E-03-0.160E-05
CGA:  10    -0.549483445181E+03   -0.12968E-03   -0.12970E-03   384   0.357E-03-0.519E-06
CGA:  11    -0.549483512475E+03   -0.67294E-04   -0.67273E-04   384   0.361E-03 0.456E-06
CGA:  12    -0.549483534005E+03   -0.21530E-04   -0.21466E-04   384   0.128E-03 0.182E-07
CGA:  13    -0.549483553541E+03   -0.19536E-04   -0.19532E-04   384   0.348E-04 0.365E-06
CGA:  14    -0.549483560018E+03   -0.64772E-05   -0.64619E-05   384   0.155E-04 0.353E-06
CGA:  15    -0.549483562234E+03   -0.22157E-05   -0.22164E-05   384   0.129E-04 0.351E-06
CGA:  16    -0.549483563110E+03   -0.87620E-06   -0.88258E-06   384   0.531E-05 0.900E-07
   9 F= -.54948356E+03 E0= -.54948356E+03  d E =-.341520E-11
       N       E                     dE             d eps       ncg     rms          ort
SDA:   1    -0.549195562694E+03    0.28800E+00    0.00000E+00   384   0.704E+00 0.000E+00
CGA:   2    -0.549421714017E+03   -0.22615E+00   -0.22634E+00   384   0.294E+00-0.984E-03
CGA:   3    -0.549453422042E+03   -0.31708E-01   -0.31435E-01   384   0.301E+00-0.749E-03
CGA:   4    -0.549473758789E+03   -0.20337E-01   -0.20770E-01   384   0.413E-01-0.334E-02
CGA:   5    -0.549481337934E+03   -0.75791E-02   -0.75815E-02   384   0.140E-01-0.414E-04
CGA:   6    -0.549482371221E+03   -0.10333E-02   -0.10406E-02   384   0.103E-01-0.404E-04
CGA:   7    -0.549483569854E+03   -0.11986E-02   -0.11980E-02   384   0.166E-02-0.741E-05
CGA:   8    -0.549483851252E+03   -0.28140E-03   -0.28132E-03   384   0.193E-02 0.219E-05
CGA:   9    -0.549483973005E+03   -0.12175E-03   -0.12135E-03   384   0.479E-03 0.217E-05
CGA:  10    -0.549484035988E+03   -0.62983E-04   -0.62989E-04   384   0.252E-03 0.967E-06
CGA:  11    -0.549484072153E+03   -0.36165E-04   -0.36167E-04   384   0.280E-03-0.200E-06
CGA:  12    -0.549484091881E+03   -0.19728E-04   -0.19781E-04   384   0.853E-04 0.490E-06
CGA:  13    -0.549484108951E+03   -0.17069E-04   -0.17084E-04   384   0.598E-04-0.218E-06
CGA:  14    -0.549484114130E+03   -0.51792E-05   -0.51953E-05   384   0.421E-04 0.290E-06
CGA:  15    -0.549484118053E+03   -0.39234E-05   -0.39229E-05   384   0.137E-04-0.494E-08
CGA:  16    -0.549484119969E+03   -0.19156E-05   -0.19149E-05   384   0.704E-05 0.123E-06
CGA:  17    -0.549484120555E+03   -0.58606E-06   -0.58192E-06   384   0.494E-05-0.811E-07
  10 F= -.54948412E+03 E0= -.54948412E+03  d E =-.227400E-12
       N       E                     dE             d eps       ncg     rms          ort
SDA:   1    -0.548903370087E+03    0.58075E+00    0.00000E+00   384   0.141E+01 0.000E+00
CGA:   2    -0.549358347752E+03   -0.45498E+00   -0.45570E+00   384   0.526E+00-0.363E-02
CGA:   3    -0.549441339584E+03   -0.82992E-01   -0.83074E-01   384   0.407E+00-0.274E-02
CGA:   4    -0.549461809175E+03   -0.20470E-01   -0.21695E-01   384   0.987E-01-0.155E-01
CGA:   5    -0.549477000925E+03   -0.15192E-01   -0.15203E-01   384   0.262E-01-0.309E-03
CGA:   6    -0.549479063499E+03   -0.20626E-02   -0.20797E-02   384   0.202E-01-0.599E-04
CGA:   7    -0.549481333932E+03   -0.22704E-02   -0.22686E-02   384   0.368E-02-0.276E-04
CGA:   8    -0.549481820200E+03   -0.48627E-03   -0.48629E-03   384   0.468E-02 0.122E-04
CGA:   9    -0.549482185684E+03   -0.36548E-03   -0.36482E-03   384   0.769E-03 0.244E-05
CGA:  10    -0.549482307396E+03   -0.12171E-03   -0.12163E-03   384   0.941E-03 0.232E-05
CGA:  11    -0.549482380399E+03   -0.73003E-04   -0.72917E-04   384   0.349E-03-0.476E-06
CGA:  12    -0.549482427240E+03   -0.46841E-04   -0.46835E-04   384   0.224E-03 0.997E-06
CGA:  13    -0.549482451302E+03   -0.24062E-04   -0.24055E-04   384   0.183E-03-0.266E-06
CGA:  14    -0.549482468143E+03   -0.16841E-04   -0.16868E-04   384   0.766E-04 0.619E-06
CGA:  15    -0.549482478328E+03   -0.10185E-04   -0.10186E-04   384   0.404E-04-0.178E-07
CGA:  16    -0.549482481581E+03   -0.32531E-05   -0.32688E-05   384   0.245E-04 0.317E-06
CGA:  17    -0.549482484344E+03   -0.27628E-05   -0.27630E-05   384   0.903E-05 0.428E-08
CGA:  18    -0.549482485416E+03   -0.10716E-05   -0.10721E-05   384   0.610E-05 0.800E-07
CGA:  19    -0.549482485902E+03   -0.48582E-06   -0.48186E-06   384   0.286E-05-0.896E-07
  11 F= -.54948249E+03 E0= -.54948249E+03  d E =-.170111E-13
       N       E                     dE             d eps       ncg     rms          ort
SDA:   1    -0.549171923660E+03    0.31056E+00    0.00000E+00   384   0.744E+00 0.000E+00
CGA:   2    -0.549395323415E+03   -0.22340E+00   -0.22406E+00   384   0.447E+00-0.384E-02
CGA:   3    -0.549425681412E+03   -0.30358E-01   -0.29203E-01   384   0.268E+00 0.887E-02
CGA:   4    -0.549457773439E+03   -0.32092E-01   -0.32122E-01   384   0.454E-01 0.126E-02
CGA:   5    -0.549465676515E+03   -0.79031E-02   -0.79107E-02   384   0.334E-01-0.130E-03
CGA:   6    -0.549467453105E+03   -0.17766E-02   -0.18036E-02   384   0.944E-02-0.301E-03
CGA:   7    -0.549469211172E+03   -0.17581E-02   -0.17582E-02   384   0.223E-02-0.259E-06
CGA:   8    -0.549469476966E+03   -0.26579E-03   -0.26587E-03   384   0.278E-02 0.463E-05
CGA:   9    -0.549469712413E+03   -0.23545E-03   -0.23519E-03   384   0.613E-03-0.926E-06
CGA:  10    -0.549469800144E+03   -0.87731E-04   -0.87707E-04   384   0.431E-03 0.132E-05
CGA:  11    -0.549469843830E+03   -0.43686E-04   -0.43664E-04   384   0.403E-03-0.471E-06
CGA:  12    -0.549469885602E+03   -0.41772E-04   -0.41800E-04   384   0.110E-03 0.107E-05
CGA:  13    -0.549469904668E+03   -0.19066E-04   -0.19082E-04   384   0.146E-03-0.320E-06
CGA:  14    -0.549469914726E+03   -0.10059E-04   -0.10089E-04   384   0.380E-04 0.372E-06
CGA:  15    -0.549469920813E+03   -0.60865E-05   -0.60915E-05   384   0.262E-04-0.133E-06
CGA:  16    -0.549469923091E+03   -0.22786E-05   -0.22838E-05   384   0.174E-04 0.132E-06
CGA:  17    -0.549469924833E+03   -0.17420E-05   -0.17384E-05   384   0.517E-05-0.150E-06
CGA:  18    -0.549469925520E+03   -0.68622E-06   -0.68541E-06   384   0.437E-05 0.778E-07
  12 F= -.54946993E+03 E0= -.54946993E+03  d E =-.375268E-11
       N       E                     dE             d eps       ncg     rms          ort
SDA:   1    -0.548869250666E+03    0.60067E+00    0.00000E+00   384   0.136E+01 0.000E+00
CGA:   2    -0.549298507751E+03   -0.42926E+00   -0.42576E+00   384   0.737E+00 0.207E-01
CGA:   3    -0.549388716137E+03   -0.90208E-01   -0.90467E-01   384   0.791E+00 0.114E-01
CGA:   4    -0.549443010739E+03   -0.54295E-01   -0.52374E-01   384   0.116E+00 0.153E-01
CGA:   5    -0.549463498287E+03   -0.20488E-01   -0.20494E-01   384   0.226E-01-0.852E-04
CGA:   6    -0.549468826293E+03   -0.53280E-02   -0.53270E-02   384   0.797E-02 0.713E-05
CGA:   7    -0.549470060384E+03   -0.12341E-02   -0.12337E-02   384   0.115E-01 0.126E-04
CGA:   8    -0.549470832464E+03   -0.77208E-03   -0.76714E-03   384   0.271E-02 0.329E-04
CGA:   9    -0.549471425072E+03   -0.59261E-03   -0.59260E-03   384   0.148E-02 0.148E-06
CGA:  10    -0.549471708784E+03   -0.28371E-03   -0.28366E-03   384   0.682E-03 0.922E-06
CGA:  11    -0.549471830785E+03   -0.12200E-03   -0.12191E-03   384   0.528E-03 0.222E-05
CGA:  12    -0.549471862125E+03   -0.31340E-04   -0.31307E-04   384   0.208E-03 0.891E-06
CGA:  13    -0.549471890697E+03   -0.28572E-04   -0.28572E-04   384   0.507E-04 0.153E-05
CGA:  14    -0.549471900356E+03   -0.96594E-05   -0.96344E-05   384   0.197E-04 0.488E-06
CGA:  15    -0.549471903430E+03   -0.30738E-05   -0.30669E-05   384   0.208E-04 0.480E-06
CGA:  16    -0.549471904819E+03   -0.13885E-05   -0.14003E-05   384   0.816E-05 0.161E-06
CGA:  17    -0.549471906207E+03   -0.13882E-05   -0.13755E-05   384   0.303E-05 0.418E-06
CGA:  18    -0.549471906914E+03   -0.70738E-06   -0.69981E-06   384   0.198E-05 0.949E-07
  13 F= -.54947191E+03 E0= -.54947191E+03  d E =-.668950E-12
       N       E                     dE             d eps       ncg     rms          ort
SDA:   1    -0.549182662901E+03    0.28924E+00    0.00000E+00   384   0.115E+01 0.000E+00
CGA:   2    -0.549277368532E+03   -0.94706E-01   -0.89990E-01   384   0.120E+01 0.221E-01
CGA:   3    -0.549450344190E+03   -0.17298E+00   -0.17291E+00   384   0.210E+00 0.919E-02
CGA:   4    -0.549489790978E+03   -0.39447E-01   -0.39415E-01   384   0.146E+00 0.526E-03
CGA:   5    -0.549497131262E+03   -0.73403E-02   -0.71049E-02   384   0.306E-01 0.354E-02
CGA:   6    -0.549502636962E+03   -0.55057E-02   -0.55050E-02   384   0.856E-02 0.192E-04
CGA:   7    -0.549503476749E+03   -0.83979E-03   -0.84128E-03   384   0.954E-02 0.135E-04
CGA:   8    -0.549504324699E+03   -0.84795E-03   -0.84710E-03   384   0.158E-02 0.767E-05
CGA:   9    -0.549504650963E+03   -0.32626E-03   -0.32631E-03   384   0.126E-02-0.667E-06
CGA:  10    -0.549504741099E+03   -0.90136E-04   -0.90295E-04   384   0.879E-03 0.170E-06
CGA:  11    -0.549504858800E+03   -0.11770E-03   -0.11770E-03   384   0.281E-03-0.534E-06
CGA:  12    -0.549504917704E+03   -0.58903E-04   -0.58918E-04   384   0.260E-03-0.166E-06
CGA:  13    -0.549504934939E+03   -0.17235E-04   -0.17251E-04   384   0.141E-03 0.292E-06
CGA:  14    -0.549504955286E+03   -0.20347E-04   -0.20355E-04   384   0.451E-04-0.686E-06
CGA:  15    -0.549504965928E+03   -0.10642E-04   -0.10680E-04   384   0.206E-04-0.365E-06
CGA:  16    -0.549504970675E+03   -0.47468E-05   -0.47418E-05   384   0.117E-04 0.566E-07
CGA:  17    -0.549504973126E+03   -0.24516E-05   -0.24551E-05   384   0.154E-04-0.495E-07
CGA:  18    -0.549504974273E+03   -0.11468E-05   -0.11543E-05   384   0.102E-04 0.105E-06
CGA:  19    -0.549504976298E+03   -0.20249E-05   -0.20285E-05   384   0.703E-05-0.626E-07
CGA:  20    -0.549504978199E+03   -0.19005E-05   -0.19039E-05   384   0.623E-05-0.255E-07
CGA:  21    -0.549504979945E+03   -0.17460E-05   -0.17568E-05   384   0.466E-05-0.814E-07
CGA:  22    -0.549504981355E+03   -0.14107E-05   -0.14294E-05   384   0.708E-05-0.122E-06
CGA:  23    -0.549504981966E+03   -0.61118E-06   -0.60046E-06   384   0.725E-05-0.113E-06
CGA:  24    -0.549504983206E+03   -0.12392E-05   -0.12399E-05   384   0.430E-05-0.554E-07
CGA:  25    -0.549504984468E+03   -0.12619E-05   -0.12616E-05   384   0.488E-05 0.359E-08
CGA:  26    -0.549504985161E+03   -0.69297E-06   -0.69055E-06   384   0.922E-05-0.707E-07
  14 F= -.54950499E+03 E0= -.54950499E+03  d E =-.505760E-13
       N       E                     dE             d eps       ncg     rms          ort
SDA:   1    -0.548258309894E+03    0.12467E+01    0.00000E+00   384   0.225E+02 0.000E+00
CGA:   2    -0.548591157950E+03   -0.33285E+00   -0.13768E+01   384   0.103E+02-0.102E+02
CGA:   3    -0.549160279969E+03   -0.56912E+00   -0.39096E+00   384   0.789E+00 0.186E+01
CGA:   4    -0.549224323084E+03   -0.64043E-01   -0.59939E-01   384   0.104E+01 0.404E-01
CGA:   5    -0.549409787881E+03   -0.18546E+00   -0.18544E+00   384   0.762E+00-0.355E-04
CGA:   6    -0.549432444719E+03   -0.22657E-01   -0.26824E-01   384   0.751E-01-0.997E-01
CGA:   7    -0.549448083002E+03   -0.15638E-01   -0.15644E-01   384   0.473E-01-0.429E-04
CGA:   8    -0.549450353767E+03   -0.22708E-02   -0.21935E-02   384   0.146E-01 0.128E-02
CGA:   9    -0.549453296920E+03   -0.29432E-02   -0.29432E-02   384   0.630E-02-0.418E-05
CGA:  10    -0.549454109309E+03   -0.81239E-03   -0.81287E-03   384   0.708E-02 0.833E-05
CGA:  11    -0.549454559253E+03   -0.44994E-03   -0.44768E-03   384   0.208E-02 0.193E-04
CGA:  12    -0.549454980482E+03   -0.42123E-03   -0.42089E-03   384   0.985E-03 0.564E-05
CGA:  13    -0.549455093678E+03   -0.11320E-03   -0.11331E-03   384   0.124E-02 0.265E-05
CGA:  14    -0.549455195036E+03   -0.10136E-03   -0.10126E-03   384   0.430E-03 0.958E-06
CGA:  15    -0.549455278694E+03   -0.83658E-04   -0.83667E-04   384   0.221E-03-0.186E-06
CGA:  16    -0.549455318785E+03   -0.40091E-04   -0.40066E-04   384   0.246E-03 0.575E-06
CGA:  17    -0.549455334115E+03   -0.15330E-04   -0.15289E-04   384   0.110E-03 0.193E-06
CGA:  18    -0.549455353661E+03   -0.19546E-04   -0.19519E-04   384   0.461E-04 0.745E-06
CGA:  19    -0.549455363257E+03   -0.95962E-05   -0.95831E-05   384   0.480E-04 0.205E-06
CGA:  20    -0.549455366938E+03   -0.36812E-05   -0.36646E-05   384   0.381E-04-0.162E-06
CGA:  21    -0.549455372358E+03   -0.54204E-05   -0.54205E-05   384   0.188E-04-0.356E-07
CGA:  22    -0.549455376578E+03   -0.42197E-05   -0.42193E-05   384   0.211E-04 0.362E-08
CGA:  23    -0.549455378550E+03   -0.19723E-05   -0.19641E-05   384   0.256E-04-0.974E-07
CGA:  24    -0.549455382261E+03   -0.37104E-05   -0.37103E-05   384   0.159E-04 0.178E-06
CGA:  25    -0.549455386150E+03   -0.38889E-05   -0.38697E-05   384   0.233E-04 0.194E-06
CGA:  26    -0.549455388233E+03   -0.20833E-05   -0.20703E-05   384   0.256E-04-0.922E-07
CGA:  27    -0.549455392473E+03   -0.42397E-05   -0.42391E-05   384   0.198E-04-0.118E-07
CGA:  28    -0.549455395790E+03   -0.33167E-05   -0.33186E-05   384   0.224E-04-0.110E-06
CGA:  29    -0.549455398221E+03   -0.24312E-05   -0.24177E-05   384   0.253E-04-0.194E-06
CGA:  30    -0.549455400505E+03   -0.22841E-05   -0.22931E-05   384   0.142E-04 0.271E-07
CGA:  31    -0.549455403098E+03   -0.25934E-05   -0.25896E-05   384   0.130E-04 0.928E-07
SDA:  32    -0.549455404298E+03   -0.11997E-05   -0.11943E-05   384   0.149E-04-0.145E-07
CGA:  33    -0.549455405101E+03   -0.80291E-06   -0.80890E-06   384   0.731E-05 0.594E-07
CGA:  34    -0.549455406402E+03   -0.13013E-05   -0.13015E-05   384   0.444E-05-0.247E-08
CGA:  35    -0.549455407151E+03   -0.74916E-06   -0.74849E-06   384   0.361E-05 0.260E-07
  15 F= -.54945541E+03 E0= -.54945541E+03  d E =-.145318E-12
       N       E                     dE             d eps       ncg     rms          ort
SDA:   1    -0.549130919286E+03    0.32449E+00    0.00000E+00   384   0.228E+01 0.000E+00
CGA:   2    -0.549240596058E+03   -0.10968E+00   -0.92134E-01   384   0.650E+00 0.349E+00
CGA:   3    -0.549400229935E+03   -0.15963E+00   -0.15991E+00   384   0.140E+01-0.349E-02
CGA:   4    -0.549455397646E+03   -0.55168E-01   -0.60387E-01   384   0.187E+00-0.918E-01
CGA:   5    -0.549475439690E+03   -0.20042E-01   -0.20073E-01   384   0.238E+00 0.565E-03
CGA:   6    -0.549489011497E+03   -0.13572E-01   -0.13440E-01   384   0.274E-01 0.154E-02
CGA:   7    -0.549492209900E+03   -0.31984E-02   -0.31968E-02   384   0.429E-01-0.370E-04
CGA:   8    -0.549495187152E+03   -0.29773E-02   -0.29871E-02   384   0.730E-02-0.205E-04
CGA:   9    -0.549495911359E+03   -0.72421E-03   -0.72435E-03   384   0.846E-02 0.937E-05
CGA:  10    -0.549496508576E+03   -0.59722E-03   -0.59597E-03   384   0.244E-02 0.104E-04
CGA:  11    -0.549496810447E+03   -0.30187E-03   -0.30187E-03   384   0.246E-02-0.360E-05
CGA:  12    -0.549496948442E+03   -0.13800E-03   -0.13815E-03   384   0.795E-03-0.198E-05
CGA:  13    -0.549497063170E+03   -0.11473E-03   -0.11483E-03   384   0.641E-03-0.401E-05
CGA:  14    -0.549497100016E+03   -0.36846E-04   -0.36612E-04   384   0.325E-03-0.119E-05
CGA:  15    -0.549497146235E+03   -0.46220E-04   -0.46249E-04   384   0.184E-03-0.115E-05
CGA:  16    -0.549497159477E+03   -0.13241E-04   -0.13266E-04   384   0.149E-03 0.719E-06
CGA:  17    -0.549497175048E+03   -0.15571E-04   -0.15579E-04   384   0.747E-04 0.692E-06
CGA:  18    -0.549497183452E+03   -0.84048E-05   -0.84056E-05   384   0.713E-04 0.228E-06
CGA:  19    -0.549497188383E+03   -0.49308E-05   -0.49485E-05   384   0.361E-04 0.417E-06
CGA:  20    -0.549497193876E+03   -0.54930E-05   -0.54960E-05   384   0.225E-04-0.737E-07
CGA:  21    -0.549497195865E+03   -0.19884E-05   -0.19829E-05   384   0.249E-04-0.192E-06
CGA:  22    -0.549497198414E+03   -0.25492E-05   -0.25502E-05   384   0.930E-05 0.918E-07
CGA:  23    -0.549497199581E+03   -0.11673E-05   -0.11657E-05   384   0.119E-04 0.158E-06
CGA:  24    -0.549497200501E+03   -0.92022E-06   -0.91860E-06   384   0.571E-05-0.370E-07
  16 F= -.54949720E+03 E0= -.54949720E+03  d E =-.158924E-13
       N       E                     dE             d eps       ncg     rms          ort
SDA:   1    -0.548327525210E+03    0.11697E+01    0.00000E+00   384   0.203E+02 0.000E+00
CGA:   2    -0.548858650658E+03   -0.53113E+00   -0.94789E+00   384   0.410E+01-0.539E+01
CGA:   3    -0.549139678280E+03   -0.28103E+00   -0.26560E+00   384   0.151E+01-0.166E+00
CGA:   4    -0.549307056259E+03   -0.16738E+00   -0.16652E+00   384   0.105E+01 0.830E-01
CGA:   5    -0.549406834028E+03   -0.99778E-01   -0.98073E-01   384   0.423E+00-0.215E-01
CGA:   6    -0.549441930444E+03   -0.35096E-01   -0.35582E-01   384   0.147E+00 0.534E-02
CGA:   7    -0.549455060277E+03   -0.13130E-01   -0.13047E-01   384   0.699E-01-0.125E-02
CGA:   8    -0.549461775018E+03   -0.67147E-02   -0.67284E-02   384   0.285E-01 0.616E-03
CGA:   9    -0.549464140823E+03   -0.23658E-02   -0.23567E-02   384   0.110E-01-0.980E-04
CGA:  10    -0.549465285003E+03   -0.11442E-02   -0.11443E-02   384   0.667E-02 0.581E-04
CGA:  11    -0.549465954183E+03   -0.66918E-03   -0.66891E-03   384   0.328E-02-0.317E-04
CGA:  12    -0.549466267840E+03   -0.31366E-03   -0.31387E-03   384   0.183E-02 0.104E-04
CGA:  13    -0.549466489317E+03   -0.22148E-03   -0.22175E-03   384   0.148E-02-0.117E-04
CGA:  14    -0.549466645593E+03   -0.15628E-03   -0.15626E-03   384   0.829E-03 0.626E-05
CGA:  15    -0.549466737760E+03   -0.92166E-04   -0.92204E-04   384   0.648E-03-0.406E-05
CGA:  16    -0.549466815537E+03   -0.77777E-04   -0.77700E-04   384   0.428E-03 0.377E-05
CGA:  17    -0.549466857133E+03   -0.41597E-04   -0.41577E-04   384   0.232E-03-0.112E-05
CGA:  18    -0.549466883078E+03   -0.25945E-04   -0.25932E-04   384   0.159E-03 0.168E-05
CGA:  19    -0.549466899821E+03   -0.16743E-04   -0.16742E-04   384   0.857E-04-0.236E-06
CGA:  20    -0.549466908102E+03   -0.82812E-05   -0.82886E-05   384   0.478E-04 0.765E-06
CGA:  21    -0.549466913990E+03   -0.58878E-05   -0.58926E-05   384   0.406E-04-0.221E-06
CGA:  22    -0.549466918407E+03   -0.44168E-05   -0.44156E-05   384   0.242E-04 0.400E-06
CGA:  23    -0.549466921327E+03   -0.29208E-05   -0.29248E-05   384   0.243E-04-0.267E-06
CGA:  24    -0.549466924879E+03   -0.35520E-05   -0.35406E-05   384   0.234E-04 0.272E-06
CGA:  25    -0.549466927550E+03   -0.26705E-05   -0.26719E-05   384   0.201E-04-0.262E-06
CGA:  26    -0.549466930622E+03   -0.30721E-05   -0.30563E-05   384   0.242E-04 0.335E-06
CGA:  27    -0.549466933740E+03   -0.31179E-05   -0.31230E-05   384   0.219E-04-0.269E-06
CGA:  28    -0.549466936522E+03   -0.27816E-05   -0.27757E-05   384   0.201E-04 0.324E-06
CGA:  29    -0.549466939345E+03   -0.28230E-05   -0.28341E-05   384   0.235E-04-0.356E-06
CGA:  30    -0.549466942464E+03   -0.31191E-05   -0.31109E-05   384   0.195E-04 0.314E-06
CGA:  31    -0.549466944856E+03   -0.23926E-05   -0.23953E-05   384   0.204E-04-0.345E-06
SDA:  32    -0.549466948057E+03   -0.32005E-05   -0.31791E-05   384   0.211E-04 0.426E-06
CGA:  33    -0.549466948981E+03   -0.92446E-06   -0.91646E-06   384   0.560E-05-0.855E-07
CGA:  34    -0.549466952190E+03   -0.32084E-05   -0.30521E-05   384   0.410E-05 0.366E-06
CGA:  35    -0.549466952926E+03   -0.73602E-06   -0.73777E-06   384   0.954E-05-0.437E-07
  17 F= -.54946695E+03 E0= -.54946695E+03  d E =-.196247E-12
       N       E                     dE             d eps       ncg     rms          ort
SDA:   1    -0.549134686905E+03    0.33227E+00    0.00000E+00   384   0.127E+01 0.000E+00
CGA:   2    -0.549225069573E+03   -0.90383E-01   -0.96711E-01   384   0.129E+01-0.288E-01
CGA:   3    -0.549421235570E+03   -0.19617E+00   -0.19680E+00   384   0.171E+00-0.174E-01
CGA:   4    -0.549457937693E+03   -0.36702E-01   -0.36673E-01   384   0.438E-01 0.319E-03
CGA:   5    -0.549461624050E+03   -0.36864E-02   -0.36655E-02   384   0.383E-01 0.473E-04
CGA:   6    -0.549464809222E+03   -0.31852E-02   -0.32003E-02   384   0.599E-02-0.114E-04
CGA:   7    -0.549465775631E+03   -0.96641E-03   -0.96603E-03   384   0.317E-02 0.125E-04
CGA:   8    -0.549466036502E+03   -0.26087E-03   -0.26167E-03   384   0.202E-02 0.173E-05
CGA:   9    -0.549466205626E+03   -0.16912E-03   -0.16898E-03   384   0.764E-03-0.257E-05
CGA:  10    -0.549466339494E+03   -0.13387E-03   -0.13397E-03   384   0.503E-03-0.244E-05
CGA:  11    -0.549466384737E+03   -0.45244E-04   -0.45188E-04   384   0.490E-03-0.148E-05
CGA:  12    -0.549466448582E+03   -0.63845E-04   -0.63841E-04   384   0.225E-03 0.166E-05
CGA:  13    -0.549466488010E+03   -0.39429E-04   -0.39384E-04   384   0.237E-03 0.983E-06
CGA:  14    -0.549466505117E+03   -0.17106E-04   -0.17190E-04   384   0.118E-03 0.766E-06
CGA:  15    -0.549466523803E+03   -0.18686E-04   -0.18703E-04   384   0.604E-04-0.577E-06
CGA:  16    -0.549466530141E+03   -0.63382E-05   -0.63389E-05   384   0.591E-04-0.359E-07
CGA:  17    -0.549466535914E+03   -0.57732E-05   -0.57557E-05   384   0.240E-04-0.542E-06
CGA:  18    -0.549466539668E+03   -0.37539E-05   -0.37465E-05   384   0.209E-04 0.241E-06
CGA:  19    -0.549466541417E+03   -0.17486E-05   -0.17472E-05   384   0.139E-04-0.231E-07
CGA:  20    -0.549466543491E+03   -0.20740E-05   -0.20680E-05   384   0.839E-05 0.267E-06
CGA:  21    -0.549466544597E+03   -0.11063E-05   -0.11068E-05   384   0.103E-04-0.200E-06
CGA:  22    -0.549466545573E+03   -0.97603E-06   -0.97376E-06   384   0.463E-05-0.829E-07
  18 F= -.54946655E+03 E0= -.54946655E+03  d E =-.228251E-12
       N       E                     dE             d eps       ncg     rms          ort
SDA:   1    -0.548867113345E+03    0.59943E+00    0.00000E+00   384   0.155E+01 0.000E+00
CGA:   2    -0.549259904277E+03   -0.39279E+00   -0.39752E+00   384   0.310E+01-0.388E-01
CGA:   3    -0.549402131247E+03   -0.14223E+00   -0.16502E+00   384   0.453E+00-0.261E+00
CGA:   4    -0.549475433426E+03   -0.73302E-01   -0.73565E-01   384   0.190E+00-0.454E-02
CGA:   5    -0.549485922760E+03   -0.10489E-01   -0.10941E-01   384   0.657E-01-0.464E-02
CGA:   6    -0.549495404036E+03   -0.94813E-02   -0.94893E-02   384   0.185E-01-0.282E-03
CGA:   7    -0.549496889027E+03   -0.14850E-02   -0.14930E-02   384   0.128E-01-0.112E-04
CGA:   8    -0.549498449534E+03   -0.15605E-02   -0.15600E-02   384   0.317E-02-0.351E-04
CGA:   9    -0.549498756227E+03   -0.30669E-03   -0.30721E-03   384   0.275E-02 0.739E-05
CGA:  10    -0.549499076635E+03   -0.32041E-03   -0.32036E-03   384   0.114E-02 0.518E-06
CGA:  11    -0.549499221914E+03   -0.14528E-03   -0.14527E-03   384   0.985E-03 0.582E-05
CGA:  12    -0.549499310688E+03   -0.88773E-04   -0.88709E-04   384   0.518E-03 0.121E-05
CGA:  13    -0.549499392021E+03   -0.81333E-04   -0.81251E-04   384   0.373E-03 0.254E-05
CGA:  14    -0.549499423610E+03   -0.31589E-04   -0.31533E-04   384   0.224E-03-0.377E-06
CGA:  15    -0.549499457517E+03   -0.33906E-04   -0.33895E-04   384   0.157E-03 0.386E-06
CGA:  16    -0.549499472708E+03   -0.15191E-04   -0.15172E-04   384   0.108E-03-0.493E-06
CGA:  17    -0.549499484760E+03   -0.12052E-04   -0.12059E-04   384   0.486E-04 0.548E-06
CGA:  18    -0.549499490637E+03   -0.58765E-05   -0.58767E-05   384   0.424E-04 0.430E-07
CGA:  19    -0.549499494575E+03   -0.39379E-05   -0.39490E-05   384   0.175E-04 0.353E-06
CGA:  20    -0.549499497159E+03   -0.25846E-05   -0.25929E-05   384   0.173E-04-0.313E-06
CGA:  21    -0.549499498680E+03   -0.15207E-05   -0.15180E-05   384   0.860E-05-0.951E-07
CGA:  22    -0.549499500042E+03   -0.13619E-05   -0.13822E-05   384   0.840E-05-0.490E-06
CGA:  23    -0.549499500750E+03   -0.70838E-06   -0.70519E-06   384   0.493E-05-0.103E-06
  19 F= -.54949950E+03 E0= -.54949950E+03  d E =-.215701E-14
       N       E                     dE             d eps       ncg     rms          ort
SDA:   1    -0.548886172733E+03    0.61333E+00    0.00000E+00   384   0.884E+01 0.000E+00
CGA:   2    -0.549144850112E+03   -0.25868E+00   -0.40611E+00   384   0.181E+01-0.216E+01
CGA:   3    -0.549296835695E+03   -0.15199E+00   -0.14974E+00   384   0.102E+01-0.867E-01
CGA:   4    -0.549386002404E+03   -0.89167E-01   -0.91272E-01   384   0.448E+00 0.192E-01
CGA:   5    -0.549426621222E+03   -0.40619E-01   -0.39859E-01   384   0.206E+00-0.368E-02
CGA:   6    -0.549446293129E+03   -0.19672E-01   -0.19810E-01   384   0.860E-01 0.214E-02
CGA:   7    -0.549453315164E+03   -0.70220E-02   -0.69388E-02   384   0.302E-01-0.136E-03
CGA:   8    -0.549456201141E+03   -0.28860E-02   -0.28928E-02   384   0.156E-01 0.128E-03
CGA:   9    -0.549457652746E+03   -0.14516E-02   -0.14480E-02   384   0.626E-02-0.536E-04
CGA:  10    -0.549458173138E+03   -0.52039E-03   -0.52163E-03   384   0.257E-02 0.865E-05
CGA:  11    -0.549458441461E+03   -0.26832E-03   -0.26823E-03   384   0.158E-02-0.905E-05
CGA:  12    -0.549458587568E+03   -0.14611E-03   -0.14621E-03   384   0.681E-03 0.154E-05
CGA:  13    -0.549458654704E+03   -0.67136E-04   -0.67090E-04   384   0.442E-03-0.335E-05
CGA:  14    -0.549458707388E+03   -0.52684E-04   -0.52674E-04   384   0.328E-03 0.367E-06
CGA:  15    -0.549458741085E+03   -0.33697E-04   -0.33683E-04   384   0.198E-03-0.198E-05
CGA:  16    -0.549458763230E+03   -0.22145E-04   -0.22143E-04   384   0.151E-03 0.505E-06
CGA:  17    -0.549458781091E+03   -0.17861E-04   -0.17869E-04   384   0.108E-03-0.862E-06
CGA:  18    -0.549458791716E+03   -0.10625E-04   -0.10633E-04   384   0.580E-04 0.565E-06
CGA:  19    -0.549458798265E+03   -0.65493E-05   -0.65503E-05   384   0.436E-04-0.247E-06
CGA:  20    -0.549458802851E+03   -0.45864E-05   -0.45885E-05   384   0.234E-04 0.540E-06
CGA:  21    -0.549458805279E+03   -0.24276E-05   -0.24276E-05   384   0.162E-04-0.208E-07
CGA:  22    -0.549458807254E+03   -0.19751E-05   -0.19690E-05   384   0.120E-04 0.466E-06
CGA:  23    -0.549458808618E+03   -0.13642E-05   -0.13643E-05   384   0.917E-05 0.583E-07
CGA:  24    -0.549458809766E+03   -0.11475E-05   -0.11422E-05   384   0.728E-05 0.365E-06
CGA:  25    -0.549458810684E+03   -0.91863E-06   -0.91847E-06   384   0.678E-05 0.276E-07
  20 F= -.54945881E+03 E0= -.54945881E+03  d E =-.118594E-12
       N       E                     dE             d eps       ncg     rms          ort
SDA:   1    -0.548861968308E+03    0.59684E+00    0.00000E+00   384   0.193E+01 0.000E+00
CGA:   2    -0.549070842038E+03   -0.20887E+00   -0.20832E+00   384   0.328E+01-0.728E-01
CGA:   3    -0.549397561483E+03   -0.32672E+00   -0.32748E+00   384   0.434E+00 0.428E-01
CGA:   4    -0.549454355705E+03   -0.56794E-01   -0.56655E-01   384   0.528E+00 0.528E-02
CGA:   5    -0.549487511482E+03   -0.33156E-01   -0.32761E-01   384   0.488E-01 0.264E-02
CGA:   6    -0.549497251852E+03   -0.97404E-02   -0.97394E-02   384   0.419E-01 0.324E-05
CGA:   7    -0.549499250454E+03   -0.19986E-02   -0.20294E-02   384   0.885E-02-0.370E-03
CGA:   8    -0.549500951564E+03   -0.17011E-02   -0.16997E-02   384   0.283E-02 0.171E-04
[...]
CGA:   4    -0.549472748111E+03   -0.22416E-01   -0.22366E-01   384   0.937E-01 0.804E-03
CGA:   5    -0.549477747770E+03   -0.49997E-02   -0.49095E-02   384   0.212E-01 0.103E-02
CGA:   6    -0.549481060698E+03   -0.33129E-02   -0.33095E-02   384   0.636E-02 0.696E-04
CGA:   7    -0.549481631246E+03   -0.57055E-03   -0.57026E-03   384   0.555E-02 0.318E-05
CGA:   8    -0.549482140999E+03   -0.50975E-03   -0.51053E-03   384   0.106E-02 0.201E-04
CGA:   9    -0.549482304988E+03   -0.16399E-03   -0.16401E-03   384   0.102E-02-0.519E-06
CGA:  10    -0.549482378764E+03   -0.73776E-04   -0.73930E-04   384   0.418E-03 0.103E-06
CGA:  11    -0.549482430815E+03   -0.52050E-04   -0.52068E-04   384   0.251E-03-0.168E-05
CGA:  12    -0.549482464832E+03   -0.34017E-04   -0.34006E-04   384   0.246E-03 0.380E-06
CGA:  13    -0.549482485354E+03   -0.20522E-04   -0.20514E-04   384   0.115E-03-0.254E-06
CGA:  14    -0.549482502990E+03   -0.17636E-04   -0.17573E-04   384   0.834E-04 0.160E-05
CGA:  15    -0.549482511248E+03   -0.82575E-05   -0.82608E-05   384   0.658E-04 0.171E-06
CGA:  16    -0.549482518213E+03   -0.69647E-05   -0.69690E-05   384   0.266E-04 0.440E-06
CGA:  17    -0.549482522053E+03   -0.38402E-05   -0.38550E-05   384   0.302E-04-0.496E-06
CGA:  18    -0.549482524463E+03   -0.24104E-05   -0.24111E-05   384   0.112E-04 0.459E-08
CGA:  19    -0.549482526241E+03   -0.17781E-05   -0.17768E-05   384   0.940E-05 0.333E-07
CGA:  20    -0.549482527080E+03   -0.83909E-06   -0.84717E-06   384   0.644E-05 0.297E-06
  26 F= -.54948253E+03 E0= -.54948253E+03  d E =-.999126E-13
       N       E                     dE             d eps       ncg     rms          ort
SDA:   1    -0.549306610709E+03    0.17592E+00    0.00000E+00   384   0.394E+00 0.000E+00
CGA:   2    -0.549438603171E+03   -0.13199E+00   -0.13282E+00   384   0.213E+00-0.410E-02
CGA:   3    -0.549459001967E+03   -0.20399E-01   -0.20554E-01   384   0.202E+00 0.112E-02
CGA:   4    -0.549474997542E+03   -0.15996E-01   -0.15852E-01   384   0.272E-01 0.227E-03
CGA:   5    -0.549479533091E+03   -0.45355E-02   -0.45335E-02   384   0.148E-01 0.361E-04
CGA:   6    -0.549480397956E+03   -0.86487E-03   -0.85798E-03   384   0.554E-02 0.655E-04
CGA:   7    -0.549481165460E+03   -0.76750E-03   -0.76737E-03   384   0.118E-02 0.794E-05
CGA:   8    -0.549481341154E+03   -0.17569E-03   -0.17581E-03   384   0.129E-02-0.390E-05
CGA:   9    -0.549481420736E+03   -0.79583E-04   -0.79705E-04   384   0.285E-03-0.136E-05
CGA:  10    -0.549481473854E+03   -0.53118E-04   -0.53131E-04   384   0.199E-03-0.192E-06
CGA:  11    -0.549481495633E+03   -0.21779E-04   -0.21793E-04   384   0.150E-03 0.933E-06
CGA:  12    -0.549481507722E+03   -0.12090E-04   -0.12085E-04   384   0.709E-04-0.108E-07
CGA:  13    -0.549481519587E+03   -0.11864E-04   -0.11858E-04   384   0.367E-04 0.145E-06
CGA:  14    -0.549481522970E+03   -0.33828E-05   -0.33747E-05   384   0.329E-04-0.251E-06
CGA:  15    -0.549481526776E+03   -0.38065E-05   -0.38070E-05   384   0.102E-04 0.637E-07
CGA:  16    -0.549481528160E+03   -0.13838E-05   -0.13843E-05   384   0.941E-05-0.292E-07
CGA:  17    -0.549481528847E+03   -0.68689E-06   -0.69304E-06   384   0.339E-05 0.124E-06
  27 F= -.54948153E+03 E0= -.54948153E+03  d E =-.135038E-12
       N       E                     dE             d eps       ncg     rms          ort
SDA:   1    -0.549400965431E+03    0.80563E-01    0.00000E+00   384   0.173E+00 0.000E+00
CGA:   2    -0.549465296846E+03   -0.64331E-01   -0.64355E-01   384   0.977E-01-0.137E-03
CGA:   3    -0.549472309263E+03   -0.70124E-02   -0.71221E-02   384   0.724E-01-0.614E-03
CGA:   4    -0.549480140232E+03   -0.78310E-02   -0.78207E-02   384   0.114E-01-0.150E-03
CGA:   5    -0.549481979145E+03   -0.18389E-02   -0.18386E-02   384   0.483E-02 0.677E-05
CGA:   6    -0.549482261298E+03   -0.28215E-03   -0.28056E-03   384   0.205E-02 0.126E-04
CGA:   7    -0.549482615347E+03   -0.35405E-03   -0.35394E-03   384   0.585E-03 0.186E-05
CGA:   8    -0.549482672288E+03   -0.56942E-04   -0.56889E-04   384   0.583E-03-0.961E-06
CGA:   9    -0.549482733105E+03   -0.60817E-04   -0.60845E-04   384   0.180E-03 0.798E-06
CGA:  10    -0.549482754194E+03   -0.21088E-04   -0.21088E-04   384   0.107E-03-0.822E-07
CGA:  11    -0.549482765615E+03   -0.11421E-04   -0.11434E-04   384   0.952E-04 0.617E-06
CGA:  12    -0.549482774650E+03   -0.90351E-05   -0.90347E-05   384   0.290E-04 0.169E-07
CGA:  13    -0.549482778664E+03   -0.40141E-05   -0.40117E-05   384   0.281E-04 0.173E-06
CGA:  14    -0.549482781138E+03   -0.24738E-05   -0.24689E-05   384   0.150E-04-0.125E-06
CGA:  15    -0.549482782995E+03   -0.18571E-05   -0.18570E-05   384   0.689E-05 0.134E-06
CGA:  16    -0.549482783681E+03   -0.68611E-06   -0.68482E-06   384   0.508E-05-0.572E-07
  28 F= -.54948278E+03 E0= -.54948278E+03  d E =-.506094E-12
       N       E                     dE             d eps       ncg     rms          ort
SDA:   1    -0.549320279888E+03    0.16250E+00    0.00000E+00   384   0.344E+00 0.000E+00
CGA:   2    -0.549451859078E+03   -0.13158E+00   -0.13169E+00   384   0.121E+00-0.620E-03
CGA:   3    -0.549474941676E+03   -0.23083E-01   -0.23096E-01   384   0.580E-01-0.189E-03
CGA:   4    -0.549478865013E+03   -0.39233E-02   -0.39768E-02   384   0.339E-01-0.391E-03
CGA:   5    -0.549482182680E+03   -0.33177E-02   -0.33125E-02   384   0.468E-02-0.318E-04
CGA:   6    -0.549483098809E+03   -0.91613E-03   -0.91588E-03   384   0.370E-02 0.297E-05
CGA:   7    -0.549483303847E+03   -0.20504E-03   -0.20391E-03   384   0.110E-02 0.970E-05
CGA:   8    -0.549483505062E+03   -0.20121E-03   -0.20110E-03   384   0.566E-03 0.214E-05
CGA:   9    -0.549483562727E+03   -0.57666E-04   -0.57639E-04   384   0.419E-03-0.498E-06
CGA:  10    -0.549483602736E+03   -0.40009E-04   -0.40049E-04   384   0.252E-03 0.743E-06
CGA:  11    -0.549483631707E+03   -0.28970E-04   -0.28964E-04   384   0.119E-03-0.369E-06
CGA:  12    -0.549483646794E+03   -0.15087E-04   -0.15088E-04   384   0.991E-04 0.463E-06
CGA:  13    -0.549483654541E+03   -0.77473E-05   -0.77347E-05   384   0.413E-04-0.173E-06
CGA:  14    -0.549483661563E+03   -0.70222E-05   -0.70095E-05   384   0.324E-04 0.295E-06
CGA:  15    -0.549483664261E+03   -0.26980E-05   -0.26932E-05   384   0.192E-04-0.889E-07
CGA:  16    -0.549483666380E+03   -0.21186E-05   -0.21221E-05   384   0.758E-05 0.220E-06
CGA:  17    -0.549483667472E+03   -0.10924E-05   -0.10930E-05   384   0.801E-05-0.237E-07
CGA:  18    -0.549483668084E+03   -0.61141E-06   -0.61678E-06   384   0.284E-05 0.107E-06
  29 F= -.54948367E+03 E0= -.54948367E+03  d E =-.289672E-11
       N       E                     dE             d eps       ncg     rms          ort
SDA:   1    -0.549376010660E+03    0.10766E+00    0.00000E+00   384   0.191E+00 0.000E+00
CGA:   2    -0.549448846467E+03   -0.72836E-01   -0.72574E-01   384   0.965E-01 0.107E-02
CGA:   3    -0.549461605087E+03   -0.12759E-01   -0.12750E-01   384   0.103E+00-0.570E-03
CGA:   4    -0.549467452230E+03   -0.58471E-02   -0.59398E-02   384   0.137E-01-0.985E-03
CGA:   5    -0.549470110679E+03   -0.26584E-02   -0.26584E-02   384   0.324E-02-0.134E-05
CGA:   6    -0.549470675410E+03   -0.56473E-03   -0.56462E-03   384   0.251E-02 0.221E-05
CGA:   7    -0.549470828159E+03   -0.15275E-03   -0.15216E-03   384   0.112E-02 0.533E-05
CGA:   8    -0.549470998554E+03   -0.17040E-03   -0.17036E-03   384   0.418E-03 0.240E-05
CGA:   9    -0.549471073046E+03   -0.74492E-04   -0.74515E-04   384   0.211E-03-0.521E-06
CGA:  10    -0.549471115283E+03   -0.42237E-04   -0.42316E-04   384   0.179E-03-0.124E-05
CGA:  11    -0.549471126614E+03   -0.11330E-04   -0.11351E-04   384   0.948E-04-0.347E-07
CGA:  12    -0.549471139960E+03   -0.13347E-04   -0.13346E-04   384   0.342E-04 0.109E-06
CGA:  13    -0.549471146313E+03   -0.63526E-05   -0.63492E-05   384   0.208E-04 0.747E-07
CGA:  14    -0.549471147613E+03   -0.12996E-05   -0.13046E-05   384   0.106E-04 0.509E-07
CGA:  15    -0.549471149015E+03   -0.14028E-05   -0.14022E-05   384   0.313E-05-0.132E-06
CGA:  16    -0.549471149642E+03   -0.62639E-06   -0.62903E-06   384   0.162E-05-0.373E-07
  30 F= -.54947115E+03 E0= -.54947115E+03  d E =-.103022E-13
       N       E                     dE             d eps       ncg     rms          ort
SDA:   1    -0.549226813733E+03    0.24434E+00    0.00000E+00   384   0.574E+00 0.000E+00
CGA:   2    -0.549378787045E+03   -0.15197E+00   -0.15301E+00   384   0.696E+00-0.787E-02
CGA:   3    -0.549417869400E+03   -0.39082E-01   -0.42126E-01   384   0.313E+00-0.303E-01
CGA:   4    -0.549459636463E+03   -0.41767E-01   -0.41765E-01   384   0.479E-01-0.841E-03
CGA:   5    -0.549464221626E+03   -0.45852E-02   -0.46147E-02   384   0.455E-01 0.364E-04
CGA:   6    -0.549468112562E+03   -0.38909E-02   -0.38771E-02   384   0.815E-02 0.343E-04
CGA:   7    -0.549469457440E+03   -0.13449E-02   -0.13445E-02   384   0.467E-02 0.103E-04
CGA:   8    -0.549469759907E+03   -0.30247E-03   -0.30091E-03   384   0.227E-02 0.809E-05
CGA:   9    -0.549470132613E+03   -0.37271E-03   -0.37273E-03   384   0.826E-03-0.190E-05
CGA:  10    -0.549470220034E+03   -0.87420E-04   -0.87343E-04   384   0.915E-03-0.154E-05
CGA:  11    -0.549470314672E+03   -0.94639E-04   -0.94707E-04   384   0.320E-03 0.160E-05
CGA:  12    -0.549470362175E+03   -0.47503E-04   -0.47488E-04   384   0.199E-03 0.970E-06
CGA:  13    -0.549470378836E+03   -0.16661E-04   -0.16701E-04   384   0.130E-03 0.657E-06
CGA:  14    -0.549470392332E+03   -0.13496E-04   -0.13489E-04   384   0.438E-04-0.236E-06
CGA:  15    -0.549470398314E+03   -0.59819E-05   -0.59822E-05   384   0.347E-04-0.182E-07
CGA:  16    -0.549470400803E+03   -0.24891E-05   -0.24780E-05   384   0.137E-04-0.183E-06
CGA:  17    -0.549470402709E+03   -0.19061E-05   -0.19040E-05   384   0.657E-05 0.168E-06
CGA:  18    -0.549470403425E+03   -0.71586E-06   -0.71719E-06   384   0.594E-05 0.680E-07
  31 F= -.54947040E+03 E0= -.54947040E+03  d E =-.340171E-11
       N       E                     dE             d eps       ncg     rms          ort
SDA:   1    -0.549380313027E+03    0.90090E-01    0.00000E+00   384   0.206E+00 0.000E+00
CGA:   2    -0.549450423702E+03   -0.70111E-01   -0.69853E-01   384   0.250E+00 0.132E-02
CGA:   3    -0.549464562093E+03   -0.14138E-01   -0.13501E-01   384   0.923E-01 0.791E-02
CGA:   4    -0.549477801308E+03   -0.13239E-01   -0.13240E-01   384   0.161E-01-0.569E-04
CGA:   5    -0.549479968822E+03   -0.21675E-02   -0.21674E-02   384   0.194E-01 0.229E-04
CGA:   6    -0.549481147581E+03   -0.11788E-02   -0.11694E-02   384   0.296E-02 0.718E-04
CGA:   7    -0.549481701393E+03   -0.55381E-03   -0.55373E-03   384   0.119E-02 0.131E-05
CGA:   8    -0.549481872904E+03   -0.17151E-03   -0.17147E-03   384   0.108E-02 0.324E-05
CGA:   9    -0.549481954842E+03   -0.81938E-04   -0.81853E-04   384   0.588E-03 0.707E-06
CGA:  10    -0.549482014258E+03   -0.59416E-04   -0.59449E-04   384   0.204E-03 0.110E-05
CGA:  11    -0.549482061533E+03   -0.47275E-04   -0.47488E-04   384   0.113E-03-0.203E-05
CGA:  12    -0.549482073452E+03   -0.11918E-04   -0.11917E-04   384   0.113E-03-0.788E-07
CGA:  13    -0.549482082891E+03   -0.94392E-05   -0.94163E-05   384   0.401E-04-0.429E-06
CGA:  14    -0.549482089292E+03   -0.64009E-05   -0.63870E-05   384   0.154E-04 0.453E-06
CGA:  15    -0.549482091675E+03   -0.23834E-05   -0.23843E-05   384   0.913E-05-0.343E-07
CGA:  16    -0.549482092441E+03   -0.76542E-06   -0.76722E-06   384   0.702E-05 0.343E-07
  32 F= -.54948209E+03 E0= -.54948209E+03  d E =-.999013E-14
       N       E                     dE             d eps       ncg     rms          ort
SDA:   1    -0.549311025063E+03    0.17107E+00    0.00000E+00   384   0.382E+00 0.000E+00
CGA:   2    -0.549444738289E+03   -0.13371E+00   -0.13447E+00   384   0.156E+00-0.361E-02
CGA:   3    -0.549473136561E+03   -0.28398E-01   -0.28360E-01   384   0.661E-01 0.528E-03
CGA:   4    -0.549477400624E+03   -0.42641E-02   -0.41822E-02   384   0.355E-01 0.728E-03
CGA:   5    -0.549481389597E+03   -0.39890E-02   -0.39903E-02   384   0.620E-02 0.158E-04
CGA:   6    -0.549482490099E+03   -0.11005E-02   -0.11005E-02   384   0.165E-02 0.157E-05
CGA:   7    -0.549482719060E+03   -0.22896E-03   -0.22896E-03   384   0.178E-02-0.349E-05
CGA:   8    -0.549482828108E+03   -0.10905E-03   -0.10927E-03   384   0.427E-03-0.203E-05
CGA:   9    -0.549482901781E+03   -0.73673E-04   -0.73657E-04   384   0.214E-03 0.434E-06
CGA:  10    -0.549482940904E+03   -0.39123E-04   -0.39068E-04   384   0.871E-04 0.123E-05
CGA:  11    -0.549482958213E+03   -0.17310E-04   -0.17340E-04   384   0.113E-03-0.507E-06
CGA:  12    -0.549482965059E+03   -0.68451E-05   -0.68554E-05   384   0.426E-04 0.432E-07
CGA:  13    -0.549482972409E+03   -0.73503E-05   -0.73490E-05   384   0.169E-04 0.453E-07
CGA:  14    -0.549482975090E+03   -0.26816E-05   -0.26801E-05   384   0.134E-04 0.812E-07
CGA:  15    -0.549482975892E+03   -0.80156E-06   -0.80750E-06   384   0.553E-05 0.684E-07
CGA:  16    -0.549482976928E+03   -0.10355E-05   -0.10411E-05   384   0.258E-05-0.108E-06
CGA:  17    -0.549482977404E+03   -0.47646E-06   -0.47430E-06   384   0.168E-05 0.468E-07
  33 F= -.54948298E+03 E0= -.54948298E+03  d E =-.941626E-14
       N       E                     dE             d eps       ncg     rms          ort
SDA:   1    -0.549399673676E+03    0.83303E-01    0.00000E+00   384   0.176E+00 0.000E+00
CGA:   2    -0.549456645948E+03   -0.56972E-01   -0.57176E-01   384   0.295E+00-0.119E-02
CGA:   3    -0.549470199257E+03   -0.13553E-01   -0.14383E-01   384   0.512E-01-0.127E-01
CGA:   4    -0.549479090075E+03   -0.88908E-02   -0.88971E-02   384   0.173E-01-0.124E-03
CGA:   5    -0.549480356396E+03   -0.12663E-02   -0.12776E-02   384   0.108E-01-0.736E-04
CGA:   6    -0.549481408452E+03   -0.10521E-02   -0.10508E-02   384   0.172E-02-0.514E-05
CGA:   7    -0.549481650755E+03   -0.24230E-03   -0.24230E-03   384   0.201E-02 0.225E-05
CGA:   8    -0.549481788208E+03   -0.13745E-03   -0.13710E-03   384   0.307E-03 0.143E-06
CGA:   9    -0.549481842983E+03   -0.54775E-04   -0.54733E-04   384   0.381E-03 0.904E-06
CGA:  10    -0.549481870113E+03   -0.27130E-04   -0.27093E-04   384   0.113E-03-0.179E-06
CGA:  11    -0.549481884440E+03   -0.14327E-04   -0.14330E-04   384   0.803E-04 0.344E-06
CGA:  12    -0.549481894015E+03   -0.95751E-05   -0.95735E-05   384   0.698E-04-0.900E-07
CGA:  13    -0.549481899705E+03   -0.56898E-05   -0.57081E-05   384   0.198E-04 0.315E-06
CGA:  14    -0.549481903001E+03   -0.32956E-05   -0.32973E-05   384   0.210E-04-0.476E-07
CGA:  15    -0.549481904583E+03   -0.15819E-05   -0.15910E-05   384   0.791E-05 0.147E-06
CGA:  16    -0.549481905524E+03   -0.94107E-06   -0.94096E-06   384   0.462E-05-0.194E-07
  34 F= -.54948191E+03 E0= -.54948191E+03  d E =-.253631E-13
       N       E                     dE             d eps       ncg     rms          ort
SDA:   1    -0.549317999457E+03    0.16391E+00    0.00000E+00   384   0.354E+00 0.000E+00
CGA:   2    -0.549439370683E+03   -0.12137E+00   -0.12110E+00   384   0.419E+00 0.127E-02
CGA:   3    -0.549460345079E+03   -0.20974E-01   -0.19589E-01   384   0.902E-01 0.222E-01
CGA:   4    -0.549478432347E+03   -0.18087E-01   -0.18092E-01   384   0.250E-01-0.716E-04
CGA:   5    -0.549481063242E+03   -0.26309E-02   -0.26348E-02   384   0.248E-01 0.228E-04
CGA:   6    -0.549482722315E+03   -0.16591E-02   -0.16475E-02   384   0.322E-02 0.834E-04
CGA:   7    -0.549483493234E+03   -0.77092E-03   -0.77090E-03   384   0.125E-02 0.205E-06
CGA:   8    -0.549483656903E+03   -0.16367E-03   -0.16368E-03   384   0.105E-02 0.894E-06
CGA:   9    -0.549483742574E+03   -0.85671E-04   -0.85487E-04   384   0.666E-03-0.366E-06
CGA:  10    -0.549483810040E+03   -0.67466E-04   -0.67503E-04   384   0.165E-03 0.110E-05
CGA:  11    -0.549483852632E+03   -0.42593E-04   -0.42659E-04   384   0.146E-03-0.532E-06
CGA:  12    -0.549483864344E+03   -0.11712E-04   -0.11733E-04   384   0.999E-04 0.294E-06
CGA:  13    -0.549483874455E+03   -0.10111E-04   -0.10096E-04   384   0.401E-04-0.403E-06
CGA:  14    -0.549483882189E+03   -0.77339E-05   -0.77232E-05   384   0.286E-04 0.188E-06
CGA:  15    -0.549483884493E+03   -0.23037E-05   -0.22933E-05   384   0.198E-04-0.166E-06
CGA:  16    -0.549483886631E+03   -0.21380E-05   -0.21425E-05   384   0.649E-05 0.167E-06
CGA:  17    -0.549483887872E+03   -0.12414E-05   -0.12414E-05   384   0.492E-05 0.365E-08
CGA:  18    -0.549483888302E+03   -0.42947E-06   -0.43608E-06   384   0.392E-05 0.137E-06
  35 F= -.54948389E+03 E0= -.54948389E+03  d E =-.112933E-12
       N       E                     dE             d eps       ncg     rms          ort
SDA:   1    -0.549375171661E+03    0.10872E+00    0.00000E+00   384   0.188E+00 0.000E+00
CGA:   2    -0.549447936903E+03   -0.72765E-01   -0.72505E-01   384   0.842E-01 0.104E-02
CGA:   3    -0.549464200866E+03   -0.16264E-01   -0.16282E-01   384   0.241E-01-0.248E-03
CGA:   4    -0.549466299494E+03   -0.20986E-02   -0.20863E-02   384   0.219E-01 0.364E-04
CGA:   5    -0.549468298488E+03   -0.19990E-02   -0.20051E-02   384   0.331E-02-0.101E-04
CGA:   6    -0.549468894426E+03   -0.59594E-03   -0.59615E-03   384   0.244E-02-0.537E-05
CGA:   7    -0.549469046116E+03   -0.15169E-03   -0.15239E-03   384   0.109E-02-0.538E-05
CGA:   8    -0.549469205520E+03   -0.15940E-03   -0.15940E-03   384   0.445E-03 0.293E-06
CGA:   9    -0.549469272954E+03   -0.67434E-04   -0.67429E-04   384   0.252E-03 0.456E-06
CGA:  10    -0.549469296483E+03   -0.23529E-04   -0.23486E-04   384   0.247E-03-0.668E-06
CGA:  11    -0.549469324601E+03   -0.28117E-04   -0.28118E-04   384   0.651E-04-0.540E-07
CGA:  12    -0.549469335219E+03   -0.10618E-04   -0.10619E-04   384   0.630E-04 0.190E-08
CGA:  13    -0.549469339973E+03   -0.47542E-05   -0.47806E-05   384   0.322E-04 0.396E-06
CGA:  14    -0.549469343711E+03   -0.37378E-05   -0.37410E-05   384   0.132E-04 0.158E-06
CGA:  15    -0.549469345492E+03   -0.17811E-05   -0.17812E-05   384   0.651E-05 0.137E-06
CGA:  16    -0.549469346027E+03   -0.53451E-06   -0.53169E-06   384   0.455E-05-0.521E-07
  36 F= -.54946935E+03 E0= -.54946935E+03  d E =-.119789E-11
       N       E                     dE             d eps       ncg     rms          ort
SDA:   1    -0.549227430993E+03    0.24191E+00    0.00000E+00   384   0.568E+00 0.000E+00
CGA:   2    -0.549395645933E+03   -0.16821E+00   -0.16925E+00   384   0.331E+00-0.642E-02
CGA:   3    -0.549442090869E+03   -0.46445E-01   -0.46424E-01   384   0.342E+00 0.376E-02
CGA:   4    -0.549461675050E+03   -0.19584E-01   -0.18883E-01   384   0.350E-01 0.873E-02
CGA:   5    -0.549469012892E+03   -0.73378E-02   -0.73361E-02   384   0.101E-01 0.247E-04
CGA:   6    -0.549470728363E+03   -0.17155E-02   -0.17158E-02   384   0.551E-02-0.737E-05
CGA:   7    -0.549471075701E+03   -0.34734E-03   -0.34922E-03   384   0.279E-02-0.148E-04
CGA:   8    -0.549471512553E+03   -0.43685E-03   -0.43699E-03   384   0.112E-02-0.542E-05
CGA:   9    -0.549471676451E+03   -0.16390E-03   -0.16389E-03   384   0.941E-03 0.941E-06
CGA:  10    -0.549471749063E+03   -0.72612E-04   -0.72482E-04   384   0.567E-03 0.284E-06
CGA:  11    -0.549471830168E+03   -0.81105E-04   -0.81090E-04   384   0.180E-03 0.184E-05
CGA:  12    -0.549471860435E+03   -0.30267E-04   -0.30303E-04   384   0.160E-03-0.108E-05
CGA:  13    -0.549471870725E+03   -0.10290E-04   -0.10291E-04   384   0.630E-04-0.153E-06
CGA:  14    -0.549471880191E+03   -0.94664E-05   -0.94771E-05   384   0.224E-04-0.603E-06
CGA:  15    -0.549471883248E+03   -0.30571E-05   -0.30563E-05   384   0.199E-04 0.254E-06
CGA:  16    -0.549471884691E+03   -0.14426E-05   -0.14438E-05   384   0.781E-05 0.234E-07
CGA:  17    -0.549471885891E+03   -0.11996E-05   -0.11949E-05   384   0.428E-05 0.219E-06
CGA:  18    -0.549471886455E+03   -0.56465E-06   -0.56474E-06   384   0.524E-05-0.856E-08
  37 F= -.54947189E+03 E0= -.54947189E+03  d E =-.618332E-13
