 vasp.6.3.0 20Jan22 (build Mar  2 2022 15:32:10) complex                        
  
 executed on         MareNostrum4 date 2023.12.09  11:04:23
 running on  384 total cores
 distrk:  each k-point on  384 cores,    1 groups
 distr:  one band on NCORE=   1 cores,  384 groups


--------------------------------------------------------------------------------------------------------


 INCAR:
   SYSTEM = Ceria_clean
   ISTART = 1
   ICHARGE = 1
   ENCUT = 500.0
   ALGO = ALL
   LSUBROT = .FALSE.
   NELMIN = 8
   NELM = 2000
   NELMDL = -15
   EDIFF = 1E-6
   PREC = Accurate
   ISPIN = 1
   LMAXMIX = 6
   ADDGRID = .TRUE.
   LASPH = .TRUE.
   ISYM = 0
   LREAL = Auto
   LHFCALC = .TRUE.
   TIME = 0.40
   HFLMAX = 6
   HFSCREEN = 0.207
   ISMEAR = 0
   SIGMA = 0.05
   NSW = 1
   EDIFFG = -0.001
   IBRION = 5
   ISIF = 2
   POTIM = 0.0150
   NFREE = 2
   LDIPOL = .TRUE.
   IDIPOL = 3
   LORBIT = 11
   NEDOS = 1001
   NWRITE = 2
   LCHARG = .FALSE.
   LWAVE = .TRUE.
   KPAR = 1
   NPAR = 384

 POTCAR:    PAW_PBE Ce_h 03Mar2005                
 POTCAR:    PAW_PBE O 08Apr2002                   
 POTCAR:    PAW_PBE C 08Apr2002                   
 -----------------------------------------------------------------------------
|                                                                             |
|           W    W    AA    RRRRR   N    N  II  N    N   GGGG   !!!           |
|           W    W   A  A   R    R  NN   N  II  NN   N  G    G  !!!           |
|           W    W  A    A  R    R  N N  N  II  N N  N  G       !!!           |
|           W WW W  AAAAAA  RRRRR   N  N N  II  N  N N  G  GGG   !            |
|           WW  WW  A    A  R   R   N   NN  II  N   NN  G    G                |
|           W    W  A    A  R    R  N    N  II  N    N   GGGG   !!!           |
|                                                                             |
|     For optimal performance we recommend to set                             |
|       NCORE = 2 up to number-of-cores-per-socket                            |
|     NCORE specifies how many cores store one orbital (NPAR=cpu/NCORE).      |
|     This setting can greatly improve the performance of VASP for DFT.       |
|     The default, NCORE=1 might be grossly inefficient on modern             |
|     multi-core architectures or massively parallel machines. Do your        |
|     own testing! More info at https://www.vasp.at/wiki/index.php/NCORE      |
|     Unfortunately you need to use the default for GW and RPA                |
|     calculations (for HF NCORE is supported but not extensively tested      |
|     yet).                                                                   |
|                                                                             |
 -----------------------------------------------------------------------------

 POTCAR:    PAW_PBE Ce_h 03Mar2005                
   VRHFIN =Ce : [core=Xe4] s2d1f1                                                                   
   LEXCH  = PE                                                                                      
   EATOM  =  1063.0861 eV,   78.1346 Ry                                                             
                                                                                                    
   TITEL  = PAW_PBE Ce_h 03Mar2005                                                                  
   LULTRA =        F    use ultrasoft PP ?                                                          
   IUNSCR =        1    unscreen: 0-lin 1-nonlin 2-no                                               
   RPACOR =    1.800    partial core radius                                                         
   POMASS =  140.115; ZVAL   =   12.000    mass and valenz                                          
   RCORE  =    2.570    outmost cutoff radius                                                       
   RWIGS  =    2.500; RWIGS  =    1.323    wigner-seitz radius (au A)                               
   ENMAX  =  299.900; ENMIN  =  224.925 eV                                                          
   RCLOC  =    1.810    cutoff for local pot                                                        
   LCOR   =        T    correct aug charges                                                         
   LPAW   =        T    paw PP                                                                      
   EAUG   =  659.424                                                                                
   DEXC   =    0.000                                                                                
   RMAX   =    2.621    core radius for proj-oper                                                   
   RAUG   =    1.300    factor for augmentation sphere                                              
   RDEP   =    2.636    radius for radial grids                                                     
   RDEPT  =    2.028    core radius for aug-charge                                                  
                                                                                                    
   Atomic configuration                                                                             
   14 entries                                                                                       
     n  l   j            E        occ.                                                              
     1  0  0.50    -40258.9816   2.0000                                                             
     2  0  0.50     -6445.4884   2.0000                                                             
     2  1  1.50     -5771.7470   6.0000                                                             
     3  0  0.50     -1387.9739   2.0000                                                             
     3  1  1.50     -1173.8158   6.0000                                                             
     3  2  2.50      -869.9108  10.0000                                                             
     4  0  0.50      -280.8706   2.0000                                                             
     4  1  1.50      -210.9815   6.0000                                                             
     4  2  2.50      -110.4558  10.0000                                                             
     5  0  0.50       -40.5819   2.0000                                                             
     6  0  0.50        -3.7444   2.0000                                                             
     5  1  1.50       -23.2188   6.0000                                                             
     5  2  2.50        -3.0598   1.0000                                                             
     4  3  2.50        -5.3970   1.0000                                                             
   Description                                                                                      
     l       E           TYP  RCUT    TYP  RCUT                                                     
     0    -40.5819164     23  1.500                                                                 
     0     -3.7443793     23  1.650                                                                 
     1    -23.2188445     23  1.800                                                                 
     1     13.6058260     23  1.800                                                                 
     2     -3.0597556     23  2.300                                                                 
     2      3.8919711     23  2.300                                                                 
     3     -5.3970469     23  2.570                                                                 
     3     -6.1226217     23  2.570                                                                 
  local pseudopotential read in
  partial core-charges read in
  partial kinetic energy density read in
  atomic valenz-charges read in
  non local Contribution for L=           0  read in
    real space projection operators read in
  non local Contribution for L=           0  read in
    real space projection operators read in
  non local Contribution for L=           1  read in
    real space projection operators read in
  non local Contribution for L=           1  read in
    real space projection operators read in
  non local Contribution for L=           2  read in
    real space projection operators read in
  non local Contribution for L=           2  read in
    real space projection operators read in
  non local Contribution for L=           3  read in
    real space projection operators read in
  non local Contribution for L=           3  read in
    real space projection operators read in
    PAW grid and wavefunctions read in
 
   number of l-projection  operators is LMAX  =           8
   number of lm-projection operators is LMMAX =          32
 
 POTCAR:    PAW_PBE O 08Apr2002                   
   VRHFIN =O: s2p4                                                                                  
   LEXCH  = PE                                                                                      
   EATOM  =   432.3788 eV,   31.7789 Ry                                                             
                                                                                                    
   TITEL  = PAW_PBE O 08Apr2002                                                                     
   LULTRA =        F    use ultrasoft PP ?                                                          
   IUNSCR =        1    unscreen: 0-lin 1-nonlin 2-no                                               
   RPACOR =    1.200    partial core radius                                                         
   POMASS =   16.000; ZVAL   =    6.000    mass and valenz                                          
   RCORE  =    1.520    outmost cutoff radius                                                       
   RWIGS  =    1.550; RWIGS  =    0.820    wigner-seitz radius (au A)                               
   ENMAX  =  400.000; ENMIN  =  300.000 eV                                                          
   ICORE  =        2    local potential                                                             
   LCOR   =        T    correct aug charges                                                         
   LPAW   =        T    paw PP                                                                      
   EAUG   =  605.392                                                                                
   DEXC   =    0.000                                                                                
   RMAX   =    1.553    core radius for proj-oper                                                   
   RAUG   =    1.300    factor for augmentation sphere                                              
   RDEP   =    1.550    radius for radial grids                                                     
   RDEPT  =    1.329    core radius for aug-charge                                                  
                                                                                                    
   Atomic configuration                                                                             
    4 entries                                                                                       
     n  l   j            E        occ.                                                              
     1  0  0.50      -514.6923   2.0000                                                             
     2  0  0.50       -23.9615   2.0000                                                             
     2  1  0.50        -9.0305   4.0000                                                             
     3  2  1.50        -9.5241   0.0000                                                             
   Description                                                                                      
     l       E           TYP  RCUT    TYP  RCUT                                                     
     0    -23.9615318     23  1.200                                                                 
     0     -9.5240782     23  1.200                                                                 
     1     -9.0304911     23  1.520                                                                 
     1      8.1634956     23  1.520                                                                 
     2     -9.5240782      7  1.500                                                                 
  local pseudopotential read in
  partial core-charges read in
  partial kinetic energy density read in
  kinetic energy density of atom read in
  atomic valenz-charges read in
  non local Contribution for L=           0  read in
    real space projection operators read in
  non local Contribution for L=           0  read in
    real space projection operators read in
  non local Contribution for L=           1  read in
    real space projection operators read in
  non local Contribution for L=           1  read in
    real space projection operators read in
    PAW grid and wavefunctions read in
 
   number of l-projection  operators is LMAX  =           4
   number of lm-projection operators is LMMAX =           8
 
 POTCAR:    PAW_PBE C 08Apr2002                   
   VRHFIN =C: s2p2                                                                                  
   LEXCH  = PE                                                                                      
   EATOM  =   147.1560 eV,   10.8157 Ry                                                             
                                                                                                    
   TITEL  = PAW_PBE C 08Apr2002                                                                     
   LULTRA =        F    use ultrasoft PP ?                                                          
   IUNSCR =        1    unscreen: 0-lin 1-nonlin 2-no                                               
   RPACOR =    1.200    partial core radius                                                         
   POMASS =   12.011; ZVAL   =    4.000    mass and valenz                                          
   RCORE  =    1.500    outmost cutoff radius                                                       
   RWIGS  =    1.630; RWIGS  =    0.863    wigner-seitz radius (au A)                               
   ENMAX  =  400.000; ENMIN  =  300.000 eV                                                          
   ICORE  =        2    local potential                                                             
   LCOR   =        T    correct aug charges                                                         
   LPAW   =        T    paw PP                                                                      
   EAUG   =  644.873                                                                                
   DEXC   =    0.000                                                                                
   RMAX   =    1.529    core radius for proj-oper                                                   
   RAUG   =    1.300    factor for augmentation sphere                                              
   RDEP   =    1.501    radius for radial grids                                                     
   RDEPT  =    1.300    core radius for aug-charge                                                  
                                                                                                    
   Atomic configuration                                                                             
    4 entries                                                                                       
     n  l   j            E        occ.                                                              
     1  0  0.50      -273.3789   2.0000                                                             
     2  0  0.50       -13.7508   2.0000                                                             
     2  1  0.50        -5.2854   2.0000                                                             
     3  2  1.50        -5.4423   0.0000                                                             
   Description                                                                                      
     l       E           TYP  RCUT    TYP  RCUT                                                     
     0    -13.7508458     23  1.200                                                                 
     0     -8.2022199     23  1.200                                                                 
     1     -5.2854383     23  1.500                                                                 
     1     34.0145650     23  1.500                                                                 
     2     -5.4423304      7  1.500                                                                 
  local pseudopotential read in
  partial core-charges read in
  partial kinetic energy density read in
  atomic valenz-charges read in
  non local Contribution for L=           0  read in
    real space projection operators read in
  non local Contribution for L=           0  read in
    real space projection operators read in
  non local Contribution for L=           1  read in
    real space projection operators read in
  non local Contribution for L=           1  read in
    real space projection operators read in
    PAW grid and wavefunctions read in
 
   number of l-projection  operators is LMAX  =           4
   number of lm-projection operators is LMMAX =           8
 
 Optimization of the real space projectors (new method)

 maximal supplied QI-value         = 14.55
 optimisation between [QCUT,QGAM] = [ 11.35, 22.84] = [ 36.07,146.14] Ry 
 Optimized for a Real-space Cutoff    1.52 Angstroem

   l    n(q)    QCUT    max X(q) W(low)/X(q) W(high)/X(q)  e(spline) 
   0     10    11.350     9.301    0.31E-04    0.96E-05    0.40E-06
   0     10    11.350    17.282    0.44E-04    0.14E-04    0.56E-06
   1     10    11.350     6.506    0.20E-04    0.36E-04    0.21E-06
   1     10    11.350     7.127    0.18E-04    0.29E-04    0.19E-06
   2      9    11.350    37.211    0.43E-04    0.58E-04    0.34E-06
   2      9    11.350    24.941    0.40E-04    0.54E-04    0.32E-06
   3      9    11.350    92.891    0.24E-03    0.35E-03    0.30E-06
   3      9    11.350    86.250    0.25E-03    0.36E-03    0.30E-06
 Optimization of the real space projectors (new method)

 maximal supplied QI-value         = 24.76
 optimisation between [QCUT,QGAM] = [ 11.39, 22.77] = [ 36.31,145.25] Ry 
 Optimized for a Real-space Cutoff    1.10 Angstroem

   l    n(q)    QCUT    max X(q) W(low)/X(q) W(high)/X(q)  e(spline) 
   0      7    11.387    20.381    0.22E-03    0.48E-03    0.18E-06
   0      7    11.387    15.268    0.22E-03    0.52E-03    0.19E-06
   1      7    11.387     5.964    0.22E-03    0.73E-03    0.24E-06
   1      7    11.387     5.382    0.19E-03    0.60E-03    0.21E-06
 Optimization of the real space projectors (new method)

 maximal supplied QI-value         = 25.13
 optimisation between [QCUT,QGAM] = [ 11.31, 22.87] = [ 35.82,146.48] Ry 
 Optimized for a Real-space Cutoff    1.03 Angstroem

   l    n(q)    QCUT    max X(q) W(low)/X(q) W(high)/X(q)  e(spline) 
   0      7    11.310   115.676    0.20E-03    0.90E-03    0.20E-06
   0      7    11.310    87.132    0.20E-03    0.89E-03    0.19E-06
   1      6    11.310     4.429    0.16E-03    0.28E-03    0.12E-06
   1      6    11.310     2.733    0.12E-03    0.21E-03    0.99E-07
  PAW_PBE Ce_h 03Mar2005                :
 energy of atom  1       EATOM=-1063.0861
 kinetic energy error for atom=    0.0216 (will be added to EATOM!!)
  PAW_PBE O 08Apr2002                   :
 energy of atom  2       EATOM= -432.3788
 kinetic energy error for atom=    0.0224 (will be added to EATOM!!)
  PAW_PBE C 08Apr2002                   :
 energy of atom  3       EATOM= -147.1560
 kinetic energy error for atom=    0.0076 (will be added to EATOM!!)
 
 
 POSCAR: surf111_2x2
  positions in direct lattice
  velocities in cartesian coordinates
 exchange correlation table for  LEXCH =        8
   RHO(1)=    0.500       N(1)  =     2000
   RHO(2)=  100.500       N(2)  =     4000

 VTST: version 4.2, (08/11/21)

 CHAIN: initializing optimizer
 
 OPT: Using VASP Dynamics algorithm
 CHAIN: Read ICHAIN            0
 
 POSCAR: surf111_2x2
  positions in direct lattice
  velocities in cartesian coordinates
 


--------------------------------------------------------------------------------------------------------


 ion  position               nearest neighbor table
   1  0.828  0.659  0.445-  25 2.35  22 2.42  21 2.44  23 2.45  19 2.55
   2  0.669  0.833  0.309-  23 2.22  30 2.31  25 2.32  31 2.33  28 2.34  32 2.40  24 2.45  26 2.48

   3  0.346  0.158  0.455-  20 2.16  18 2.25  17 2.29  21 2.32  22 2.36  51 2.39  50 2.49  27 2.55

   4  0.817  0.154  0.448-  18 2.15  19 2.19  17 2.27  21 2.29  23 2.29  26 2.35
   5  0.334  0.679  0.442-  20 2.11  17 2.17  19 2.20  22 2.25  24 2.27  23 2.34
   6  0.164  0.834  0.309-  22 2.28  25 2.32  31 2.34  30 2.34  29 2.36  33 2.37  27 2.41  24 2.41

   7  0.667  0.334  0.309-  21 2.26  25 2.30  30 2.31  29 2.35  28 2.36  34 2.37  27 2.44  26 2.48

   8  0.168  0.332  0.302-  26 2.23  27 2.23  35 2.24  24 2.28  28 2.34  31 2.35  29 2.35
   9  0.502  0.501  0.170-  28 2.30  41 2.31  36 2.33  32 2.34  39 2.35  35 2.35  37 2.35  34 2.37

  10  0.999  0.501  0.170-  42 2.31  29 2.32  35 2.33  36 2.33  34 2.34  33 2.34  37 2.35  38 2.35

  11  0.500  0.000  0.170-  32 2.29  33 2.32  34 2.32  40 2.32  39 2.35  38 2.36  37 2.36  30 2.48

  12  0.999  0.998  0.170-  31 2.29  43 2.31  36 2.33  32 2.34  39 2.35  35 2.35  38 2.35  33 2.37

  13  0.333  0.667  0.034-  37 2.29  46 2.34  40 2.34  42 2.34  41 2.34  47 2.34  45 2.34
  14  0.333  0.167  0.034-  39 2.30  47 2.34  41 2.34  43 2.34  40 2.34  46 2.34  44 2.34
  15  0.833  0.167  0.034-  38 2.29  44 2.34  42 2.34  40 2.34  43 2.34  45 2.34  47 2.34
  16  0.833  0.667  0.034-  36 2.31  45 2.34  43 2.34  41 2.34  42 2.34  44 2.34  46 2.34
  17  0.496  0.977  0.482-   5 2.17   4 2.27   3 2.29
  18  0.015  0.039  0.470-   4 2.15   3 2.25
  19  0.018  0.473  0.468-   4 2.19   5 2.20   1 2.55
  20  0.439  0.475  0.457-   5 2.11   3 2.16
  21  0.658  0.312  0.409-   7 2.26   4 2.29   3 2.32   1 2.44
  22  0.173  0.838  0.409-   5 2.25   6 2.28   3 2.36   1 2.42
  23  0.663  0.840  0.406-   2 2.22   4 2.29   5 2.34   1 2.45
  24  0.319  0.645  0.343-   5 2.27   8 2.28   6 2.41   2 2.45
  25  0.832  0.663  0.341-   7 2.30   6 2.32   2 2.32   1 2.35
  26  0.868  0.183  0.346-   8 2.23   4 2.35   2 2.48   7 2.48
  27  0.318  0.177  0.343-   8 2.23   6 2.41   7 2.44   3 2.55
  28  0.505  0.503  0.271-   9 2.30   8 2.34   2 2.34   7 2.36
  29  0.997  0.501  0.272-  10 2.32   7 2.35   8 2.35   6 2.36
  30  0.503  0.001  0.279-   7 2.31   2 2.31   6 2.34  11 2.48
  31  0.995  0.994  0.271-  12 2.29   2 2.33   6 2.34   8 2.35
  32  0.664  0.836  0.203-  11 2.29   9 2.34  12 2.34   2 2.40
  33  0.171  0.833  0.205-  11 2.32  10 2.34   6 2.37  12 2.37
  34  0.667  0.329  0.205-  11 2.32  10 2.34   9 2.37   7 2.37
  35  0.165  0.335  0.203-   8 2.24  10 2.33   9 2.35  12 2.35
  36  0.833  0.667  0.136-  16 2.31  10 2.33   9 2.33  12 2.33
  37  0.333  0.666  0.135-  13 2.29  10 2.35   9 2.35  11 2.36
  38  0.834  0.167  0.135-  15 2.29  10 2.35  12 2.35  11 2.36
  39  0.333  0.167  0.135-  14 2.30  11 2.35  12 2.35   9 2.35
  40  0.500  0.000  0.069-  11 2.32  13 2.34  15 2.34  14 2.34
  41  0.500  0.500  0.069-   9 2.31  14 2.34  16 2.34  13 2.34
  42  0.000  0.500  0.069-  10 2.31  15 2.34  13 2.34  16 2.34
  43  0.000  0.000  0.069-  12 2.31  16 2.34  14 2.34  15 2.34
  44  0.667  0.333  0.000-  15 2.34  16 2.34  14 2.34
  45  0.667  0.833  0.000-  16 2.34  15 2.34  13 2.34
  46  0.167  0.833  0.000-  13 2.34  14 2.34  16 2.34
  47  0.167  0.333  0.000-  14 2.34  13 2.34  15 2.34
  48  0.939  0.643  0.627-  53 1.13
  49  0.899  0.114  0.624-  52 1.13
  50  0.579  0.323  0.539-  51 1.30   3 2.49
  51  0.393  0.222  0.558-  50 1.30   3 2.39
  52  0.864  0.137  0.577-  49 1.13
  53  0.916  0.674  0.580-  48 1.13
 

IMPORTANT INFORMATION: All symmetrisations will be switched off!
NOSYMM: (Re-)initialisation of all symmetry stuff for point group C_1.


----------------------------------------------------------------------------------------

                                     Primitive cell                                     

  volume of cell :    1152.9083

  direct lattice vectors                    reciprocal lattice vectors
     7.647880000  0.000000000  0.000000000     0.130755190  0.075491544  0.000000000
    -3.823940000  6.623258365  0.000000000     0.000000000  0.150983088  0.000000000
     0.000000000  0.000000000 22.760511513     0.000000000  0.000000000  0.043935744

  length of vectors
     7.647880000  7.647880000 22.760511513     0.150983088  0.150983088  0.043935744

  position of ions in fractional coordinates (direct lattice)
     0.827910198  0.659431327  0.444627941
     0.668961470  0.832607505  0.308678177
     0.346139289  0.157796788  0.454510182
     0.817211620  0.154044380  0.448298305
     0.333604743  0.679179663  0.442434406
     0.164302358  0.833902380  0.308912078
     0.667091105  0.333547387  0.309357402
     0.167655482  0.331600096  0.301783149
     0.501708832  0.501054530  0.170161635
     0.999218397  0.500788660  0.169936325
     0.499968754  0.000040087  0.170484239
     0.998953652  0.998299733  0.170161174
     0.333330000  0.666670000  0.034300000
     0.333330000  0.166670000  0.034300000
     0.833330000  0.166670000  0.034300000
     0.833330000  0.666670000  0.034300000
     0.496030159  0.976566403  0.482435409
     0.015429783  0.038939519  0.469650064
     0.017895747  0.473107759  0.468487042
     0.438951082  0.475090064  0.456948626
     0.658302387  0.312499930  0.408597955
     0.172721230  0.838074642  0.409033887
     0.663182895  0.839751569  0.406005788
     0.318674422  0.644595352  0.343097437
     0.832088073  0.663405524  0.341217471
     0.867643156  0.182824288  0.346110927
     0.317813714  0.177009732  0.343492901
     0.505038130  0.503439146  0.271259581
     0.996799647  0.500838507  0.271776875
     0.503321236  0.001162746  0.279226301
     0.995332475  0.993579055  0.270823112
     0.663780867  0.836227366  0.203284601
     0.171154547  0.833178035  0.205028413
     0.666831710  0.328853860  0.205030174
     0.165395936  0.334614310  0.203290885
     0.833421687  0.666582300  0.135707986
     0.332868667  0.666185137  0.134834127
     0.833820729  0.167136506  0.134833697
     0.333232374  0.166771955  0.135433681
     0.500000000  0.000000000  0.068600000
     0.500000000  0.500000000  0.068600000
     0.000000000  0.500000000  0.068600000
     0.000000000  0.000000000  0.068600000
     0.666670000  0.333330000  0.000000000
     0.666670000  0.833330000  0.000000000
     0.166670000  0.833330000  0.000000000
     0.166670000  0.333330000  0.000000000
     0.938824672  0.642823090  0.626969369
     0.898519963  0.114495496  0.623617436
     0.579033154  0.323327501  0.538924064
     0.393452739  0.221586684  0.557842280
     0.864116131  0.137442402  0.576914420
     0.916423221  0.673675109  0.579842385

  ion indices of the primitive-cell ions
   primitive index   ion index
                 1           1
                 2           2
                 3           3
                 4           4
                 5           5
                 6           6
                 7           7
                 8           8
                 9           9
                10          10
                11          11
                12          12
                13          13
                14          14
                15          15
                16          16
                17          17
                18          18
                19          19
                20          20
                21          21
                22          22
                23          23
                24          24
                25          25
                26          26
                27          27
                28          28
                29          29
                30          30
                31          31
                32          32
                33          33
                34          34
                35          35
                36          36
                37          37
                38          38
                39          39
                40          40
                41          41
                42          42
                43          43
                44          44
                45          45
                46          46
                47          47
                48          48
                49          49
                50          50
                51          51
                52          52
                53          53

----------------------------------------------------------------------------------------

 
 
 KPOINTS: Automatic mesh                          

Automatic generation of k-mesh.
 Grid dimensions read from file:
 generate k-points for:    1    1    1

 Generating k-lattice:

  Cartesian coordinates                     Fractional coordinates (reciprocal lattice)
     0.130755190  0.075491544  0.000000000     1.000000000  0.000000000  0.000000000
     0.000000000  0.150983088  0.000000000     0.000000000  1.000000000  0.000000000
     0.000000000  0.000000000  0.043935744     0.000000000  0.000000000  1.000000000

  Length of vectors
     0.150983088  0.150983088  0.043935744

  Shift w.r.t. Gamma in fractional coordinates (k-lattice)
     0.000000000  0.000000000  0.000000000

 
 Subroutine IBZKPT returns following result:
 ===========================================
 
 Found      1 irreducible k-points:
 
 Following reciprocal coordinates:
            Coordinates               Weight
  0.000000  0.000000  0.000000      1.000000
 
 Following cartesian coordinates:
            Coordinates               Weight
  0.000000  0.000000  0.000000      1.000000
 
 
 Subroutine IBZKPT_HF returns following result:
 ==============================================
 
 Found      1 k-points in 1st BZ
 the following      1 k-points will be used (e.g. in the exchange kernel)
 Following reciprocal coordinates:   # in IRBZ
  0.000000  0.000000  0.000000    1.00000000   1 t-inv F


--------------------------------------------------------------------------------------------------------




 Dimension of arrays:
   k-points           NKPTS =      1   k-points in BZ     NKDIM =      1   number of bands    NBANDS=    384
   number of dos      NEDOS =   1001   number of ions     NIONS =     53
   non local maximal  LDIM  =      8   non local SUM 2l+1 LMDIM =     32
   total plane-waves  NPLWV = 526848
   max r-space proj   IRMAX =   6754   max aug-charges    IRDMAX= 159216
   dimension x,y,z NGX =    56 NGY =   56 NGZ =  168
   dimension x,y,z NGXF=   112 NGYF=  112 NGZF=  336
   support grid    NGXF=   224 NGYF=  224 NGZF=  672
   ions per type =              16  35   2
   NGX,Y,Z   is equivalent  to a cutoff of  12.17, 12.17, 12.27 a.u.
   NGXF,Y,Z  is equivalent  to a cutoff of  24.35, 24.35, 24.54 a.u.

 SYSTEM =  Ceria_clean                             
 POSCAR =  surf111_2x2                             

 Startparameter for this run:
   NWRITE =      2    write-flag & timer
   PREC   = accura    normal or accurate (medium, high low for compatibility)
   ISTART =      1    job   : 0-new  1-cont  2-samecut
   ICHARG =      0    charge: 1-file 2-atom 10-const
   ISPIN  =      1    spin polarized calculation?
   LNONCOLLINEAR =      F non collinear calculations
   LSORBIT =      F    spin-orbit coupling
   INIWAV =      1    electr: 0-lowe 1-rand  2-diag
   LASPH  =      T    aspherical Exc in radial PAW
 Electronic Relaxation 1
   ENCUT  =  500.0 eV  36.75 Ry    6.06 a.u.  13.94 13.94 41.50*2*pi/ulx,y,z
   ENINI  =  500.0     initial cutoff
   ENAUG  =  659.4 eV  augmentation charge cutoff
   NELM   =   2000;   NELMIN=  8; NELMDL=-15     # of ELM steps 
   EDIFF  = 0.1E-05   stopping-criterion for ELM
   LREAL  =      T    real-space projection
   NLSPLINE    = F    spline interpolate recip. space projectors
   LCOMPAT=      F    compatible to vasp.4.4
   GGA_COMPAT  = T    GGA compatible to vasp.4.4-vasp.4.6
   LMAXPAW     = -100 max onsite density
   LMAXMIX     =    6 max onsite mixed and CHGCAR
   VOSKOWN=      0    Vosko Wilk Nusair interpolation
   ROPT   =   -0.00025  -0.00025  -0.00025
 Ionic relaxation
   EDIFFG = -.1E-02   stopping-criterion for IOM
   NSW    =    673    number of steps for IOM
   NBLOCK =      1;   KBLOCK =    673    inner block; outer block 
   IBRION =      5    ionic relax: 0-MD 1-quasi-New 2-CG
   NFREE  =      2    steps in history (QN), initial steepest desc. (CG)
   ISIF   =      2    stress and relaxation
   IWAVPR =     11    prediction:  0-non 1-charg 2-wave 3-comb
   ISYM   =      0    0-nonsym 1-usesym 2-fastsym
   LCORR  =      T    Harris-Foulkes like correction to forces

   POTIM  = 0.0150    time-step for ionic-motion
   TEIN   =    0.0    initial temperature
   TEBEG  =    0.0;   TEEND  =   0.0 temperature during run
   SMASS  =  -3.00    Nose mass-parameter (am)
   estimated Nose-frequenzy (Omega)   =  0.10E-29 period in steps = 0.42E+48 mass=  -0.134E-26a.u.
   SCALEE = 1.0000    scale energy and forces
   NPACO  =    256;   APACO  = 10.0  distance and # of slots for P.C.
   PSTRESS=    0.0 pullay stress

  Mass of Ions in am
   POMASS = 140.12 16.00 12.01
  Ionic Valenz
   ZVAL   =  12.00  6.00  4.00
  Atomic Wigner-Seitz radii
   RWIGS  =  -1.00 -1.00 -1.00
  virtual crystal weights 
   VCA    =   1.00  1.00  1.00
   NELECT =     410.0000    total number of electrons
   NUPDOWN=      -1.0000    fix difference up-down

 DOS related values:
   EMIN   =  10.00;   EMAX   =-10.00  energy-range for DOS
   EFERMI =   0.00
   ISMEAR =     0;   SIGMA  =   0.05  broadening in eV -4-tet -1-fermi 0-gaus

 Electronic relaxation 2 (details)
   IALGO  =     58    algorithm
   LDIAG  =      T    sub-space diagonalisation (order eigenvalues)
   LSUBROT=      F    optimize rotation matrix (better conditioning)
   TURBO    =      0    0=normal 1=particle mesh
   IRESTART =      0    0=no restart 2=restart with 2 vectors
   NREBOOT  =      0    no. of reboots
   NMIN     =      0    reboot dimension
   EREF     =   0.00    reference energy to select bands
   IMIX   =      4    mixing-type and parameters
     AMIX     =   0.40;   BMIX     =  1.00
     AMIX_MAG =   1.60;   BMIX_MAG =  1.00
     AMIN     =   0.10
     WC   =   100.;   INIMIX=   1;  MIXPRE=   1;  MAXMIX= -45

 Intra band minimization:
   WEIMIN = 0.0010     energy-eigenvalue tresh-hold
   EBREAK =  0.65E-09  absolut break condition
   DEPER  =   0.30     relativ break condition  

   TIME   =   0.40     timestep for ELM

  volume/ion in A,a.u.               =      21.75       146.80
  Fermi-wavevector in a.u.,A,eV,Ry     =   1.159857  2.191812 18.303492  1.345269
  Thomas-Fermi vector in A             =   2.296446
 
 Write flags
   LWAVE        =      T    write WAVECAR
   LDOWNSAMPLE  =      F    k-point downsampling of WAVECAR
   LCHARG       =      F    write CHGCAR
   LVTOT        =      F    write LOCPOT, total local potential
   LVHAR        =      F    write LOCPOT, Hartree potential only
   LELF         =      F    write electronic localiz. function (ELF)
   LORBIT       =     11    0 simple, 1 ext, 2 COOP (PROOUT), +10 PAW based schemes


 Dipole corrections
   LMONO  =      F    monopole corrections only (constant potential shift)
   LDIPOL =      T    correct potential (dipole corrections)
   IDIPOL =      3    1-x, 2-y, 3-z, 4-all directions 
   EPSILON=  1.0000000 bulk dielectric constant

 Exchange correlation treatment:
   GGA     =    --    GGA type
   LEXCH   =     8    internal setting for exchange type
   LIBXC   =     F    Libxc                    
   VOSKOWN =     0    Vosko Wilk Nusair interpolation
   EXXOEP  =     0    0=HF, 1=EXX-LHF (local Hartree Fock) 2=EXX OEP
   LHFCALC =     T    Hartree Fock is set to
   LSYMGRAD=     F    symmetrize gradient (conserves proper symmetry)
   PRECFOCK=normal    Normal, Fast or Accurate (Low or Medium for compatibility)
   LRHFCALC=     F    long range Hartree Fock
   LRSCOR  =     F    long range correlation only (use DFT for short range part)
   LTHOMAS =     F    Thomas Fermi screening in HF
   LMODELHF=     F    short range full HF, long range fraction AEXX
   LFOCKACE=     T    use Adeptively-Compressed-Exchange operator
   ENCUT4O =  -1.0   cutoff for four orbital integrals eV
   LMAXFOCK=     6    L truncation for augmentation on plane wave grid
   LMAXFOCKAE=  -1    L truncation for all-electron charge restoration on plane wave grid
   NMAXFOCKAE=   1    number of basis functions for all-electron charge restoration
   LFOCKAEDFT=     F  apply the AE augmentation even for DFT
   NKREDX  =     1    reduce k-point grid by
   NKREDY  =     1    reduce k-point grid by
   NKREDZ  =     1    reduce k-point grid by
   SHIFTRED=     F    shift reduced grid of Gamma
   HFKIDENT=     F    idential grid for each k-point
   ODDONLY =     F    use only odd q-grid points
   EVENONLY=     F    use only even q-grid points
   HFALPHA =   -1.0000 decay constant for conv. correction
   MCALPHA =    0.0000 extent of test-charge in conv. correction in multipole expansion
   AEXX    =    0.2500 exact exchange contribution
   HFSCREEN=    0.2070 screening length (either q_TF or 0.3 A-1)
   HFSCREENC=   0.2070 screening length for correlation (either q_TF or 0.3 A-1)
   HFRCUT  =    0.0000 spherical cutoff for potential kernel
   ALDAX   =    0.7500 LDA exchange part
   AGGAX   =    0.7500 GGA exchange part
   ALDAC   =    1.0000 LDA correlation
   AGGAC   =    1.0000 GGA correlation
   ENCUTFOCK=  -1.0 apply spherical cutoff to Coloumb kernel
   NBANDSGWLOW=     1    first orbital included in HF term
   NBLOCK_FOCK=    64    blocking factor in FOCK_ACC

 Linear response parameters
   LEPSILON=     F    determine dielectric tensor
   LRPA    =     F    only Hartree local field effects (RPA)
   LNABLA  =     F    use nabla operator in PAW spheres
   LVEL    =     F    velocity operator in full k-point grid
   CSHIFT  =0.1000    complex shift for real part using Kramers Kronig
   OMEGAMAX=  -1.0    maximum frequency
   DEG_THRESHOLD= 0.2000000E-02 threshold for treating states as degnerate
   RTIME   =   -0.100 relaxation time in fs
  (WPLASMAI=    0.000 imaginary part of plasma frequency in eV, 0.658/RTIME)
   DFIELD  = 0.0000000 0.0000000 0.0000000 field for delta impulse in time
 
  Optional k-point grid parameters
   LKPOINTS_OPT  =     F    use optional k-point grid
   KPOINTS_OPT_MODE=     1    mode for optional k-point grid
 
 Orbital magnetization related:
   ORBITALMAG=     F  switch on orbital magnetization
   LCHIMAG   =     F  perturbation theory with respect to B field
   DQ        =  0.001000  dq finite difference perturbation B field
   LLRAUG    =     F  two centre corrections for induced B field



--------------------------------------------------------------------------------------------------------


 finite differences
   using selective dynamics as specified on POSCAR
 charge density and potential will be updated during run
 non-spin polarized calculation
 Conjugate gradient for all bands (Freysoldt, et al. PRB 79, 241103 (2009))
 preconditioned conjugated gradient                                        
 perform sub-space diagonalisation
    before iterative eigenvector-optimisation
 modified Broyden-mixing scheme, WC =      100.0
 initial mixing is a Kerker type mixing with AMIX =  0.4000 and BMIX =      1.0000
 Hartree-type preconditioning will be used
 using additional bands          179
 real space projection scheme for non local part
 use partial core corrections
 no Harris-corrections to forces 
 use gradient corrections 
 use of overlap-Matrix (Vanderbilt PP)
 Gauss-broadening in eV      SIGMA  =   0.05


--------------------------------------------------------------------------------------------------------


  energy-cutoff  :      500.00
  volume of cell :     1152.91
      direct lattice vectors                 reciprocal lattice vectors
     7.647880000  0.000000000  0.000000000     0.130755190  0.075491544  0.000000000
    -3.823940000  6.623258365  0.000000000     0.000000000  0.150983088  0.000000000
     0.000000000  0.000000000 22.760511513     0.000000000  0.000000000  0.043935744

  length of vectors
     7.647880000  7.647880000 22.760511513     0.150983088  0.150983088  0.043935744


 
 old parameters found on file WAVECAR:
  energy-cutoff  :      500.00
  volume of cell :     1152.91
      direct lattice vectors                 reciprocal lattice vectors
     7.647880000  0.000000000  0.000000000     0.130755190  0.075491544  0.000000000
    -3.823940000  6.623258365  0.000000000     0.000000000  0.150983088  0.000000000
     0.000000000  0.000000000 22.760511513     0.000000000  0.000000000  0.043935744

  length of vectors

 
 k-points in units of 2pi/SCALE and weight: Automatic mesh                          
   0.00000000  0.00000000  0.00000000       1.000
 
 k-points in reciprocal lattice and weights: Automatic mesh                          
   0.00000000  0.00000000  0.00000000       1.000
 
 position of ions in fractional coordinates (direct lattice) 
   0.82791020  0.65943133  0.44462794
   0.66896147  0.83260750  0.30867818
   0.34613929  0.15779679  0.45451018
   0.81721162  0.15404438  0.44829831
   0.33360474  0.67917966  0.44243441
   0.16430236  0.83390238  0.30891208
   0.66709111  0.33354739  0.30935740
   0.16765548  0.33160010  0.30178315
   0.50170883  0.50105453  0.17016163
   0.99921840  0.50078866  0.16993632
   0.49996875  0.00004009  0.17048424
   0.99895365  0.99829973  0.17016117
   0.33333000  0.66667000  0.03430000
   0.33333000  0.16667000  0.03430000
   0.83333000  0.16667000  0.03430000
   0.83333000  0.66667000  0.03430000
   0.49603016  0.97656640  0.48243541
   0.01542978  0.03893952  0.46965006
   0.01789575  0.47310776  0.46848704
   0.43895108  0.47509006  0.45694863
   0.65830239  0.31249993  0.40859796
   0.17272123  0.83807464  0.40903389
   0.66318290  0.83975157  0.40600579
   0.31867442  0.64459535  0.34309744
   0.83208807  0.66340552  0.34121747
   0.86764316  0.18282429  0.34611093
   0.31781371  0.17700973  0.34349290
   0.50503813  0.50343915  0.27125958
   0.99679965  0.50083851  0.27177688
   0.50332124  0.00116275  0.27922630
   0.99533247  0.99357906  0.27082311
   0.66378087  0.83622737  0.20328460
   0.17115455  0.83317804  0.20502841
   0.66683171  0.32885386  0.20503017
   0.16539594  0.33461431  0.20329088
   0.83342169  0.66658230  0.13570799
   0.33286867  0.66618514  0.13483413
   0.83382073  0.16713651  0.13483370
   0.33323237  0.16677196  0.13543368
   0.50000000  0.00000000  0.06860000
   0.50000000  0.50000000  0.06860000
   0.00000000  0.50000000  0.06860000
   0.00000000  0.00000000  0.06860000
   0.66667000  0.33333000  0.00000000
   0.66667000  0.83333000  0.00000000
   0.16667000  0.83333000  0.00000000
   0.16667000  0.33333000  0.00000000
   0.93882467  0.64282309  0.62696937
   0.89851996  0.11449550  0.62361744
   0.57903315  0.32332750  0.53892406
   0.39345274  0.22158668  0.55784228
   0.86411613  0.13744240  0.57691442
   0.91642322  0.67367511  0.57984239
 
 position of ions in cartesian coordinates  (Angst):
   3.81013201  4.36758405 10.11995938
   1.93229590  5.51457462  7.02567321
   2.04382630  1.04512889 10.34488423
   5.66087994  1.02027573 10.20349874
  -0.04577324  4.49838238 10.07003339
  -1.93222795  5.52315091  7.03099690
   3.82636753  2.20917052  7.04113271
   0.01419014  2.19627311  6.86873883
   1.92100648  3.31861361  3.87296585
   5.72691661  3.31685268  3.86783768
   3.82354775  0.00026551  3.88030848
   3.82243938  6.61199706  3.87295535
  -0.00003824  4.41552765  0.78068554
   1.91193176  1.10389847  0.78068554
   5.73587176  1.10389847  0.78068554
   3.82390176  4.41552765  0.78068554
   0.05924781  6.46805159 10.98047667
  -0.03089726  0.25790650 10.68947569
  -1.67227115  3.13351492 10.66300472
   1.54032930  3.14664424 10.40038447
   3.83963668  2.06976777  9.29989846
  -1.88379590  5.55078488  9.30982049
   1.86078359  5.56189160  9.24089941
  -0.02771021  4.26932156  7.80907317
   3.82688681  4.39390619  7.76628417
   5.93652163  1.21089250  7.87766173
   1.75372655  1.17238118  7.81807412
   1.93734992  3.33440754  6.17400681
   5.70822769  3.31718283  6.18578070
   3.84489414  0.00770117  6.35533344
   3.81279664  6.58073079  6.16407257
   1.87883314  5.53854990  4.62686149
  -1.87705338  5.51835339  4.66655156
   3.84233147  2.17808408  4.66659164
  -0.01461677  2.21623703  4.62700452
   3.82493833  4.41494679  3.08878317
  -0.00171237  4.41231628  3.06889371
   5.73784090  1.10698826  3.06888391
   1.91079526  1.10457375  3.08253985
   3.82394000  0.00000000  1.56137109
   1.91197000  3.31162918  1.56137109
  -1.91197000  3.31162918  1.56137109
   0.00000000  0.00000000  1.56137109
   3.82397824  2.20773071  0.00000000
   1.91200824  5.51935989  0.00000000
  -1.91193176  5.51935989  0.00000000
   0.00003824  2.20773071  0.00000000
   4.72190150  4.25758341 14.27014354
   6.43394895  0.75833325 14.19385183
   3.19199112  2.14148157 12.26618737
   2.16174515  1.46762586 12.69677563
   6.08308498  0.91031654 13.13086730
   4.43260163  4.46192430 13.19750928
 


--------------------------------------------------------------------------------------------------------


 k-point   1 :   0.0000 0.0000 0.0000  plane waves:   29171

 maximum and minimum number of plane-waves per node :     29171    29171

 maximum number of plane-waves:     29171
 maximum index in each direction: 
   IXMAX=   13   IYMAX=   13   IZMAX=   41
   IXMIN=  -13   IYMIN=  -13   IZMIN=  -41


 serial   3D FFT for wavefunctions
 parallel 3D FFT for charge:
    minimum data exchange during FFTs selected (reduces bandwidth)


 FFT grid for exact exchange (Hartree Fock) 
  NGX = 42; NGY = 42; NGZ =126

 
 Radii for the augmentation spheres in the non-local exchange
 for species   1 augmentation radius   1.350 (default was   1.080)
       energy cutoff for augmentation   2000.0
 for species   2 augmentation radius   0.902 (default was   0.722)
       energy cutoff for augmentation   2000.0
 for species   3 augmentation radius   0.874 (default was   0.699)
       energy cutoff for augmentation   2000.0
 Maximum index for augmentation-charges in exchange         2012
  SETUP_FOCK is finished

 total amount of memory used by VASP MPI-rank0   122830. kBytes
=======================================================================

   base      :      30000. kBytes
   nonlr-proj:      59048. kBytes
   fftplans  :       4975. kBytes
   grid      :      23543. kBytes
   one-center:       2605. kBytes
   HF        :       1204. kBytes
   wavefun   :       1455. kBytes
 
     INWAV:  cpu time      2.2216: real time      2.2238
 Broyden mixing: mesh for mixing (old mesh)
   NGX = 27   NGY = 27   NGZ = 83
  (NGX  =112   NGY  =112   NGZ  =336)
  gives a total of  60507 points

 charge density for first step will be calculated from the start-wavefunctions


--------------------------------------------------------------------------------------------------------


 Maximum index for non-local projection operator         6523
 Maximum index for augmentation-charges         3167 (set IRDMAX)


--------------------------------------------------------------------------------------------------------


 initial charge from wavefunction
 First call to EWALD:  gamma=   0.169
 Maximum number of real-space cells 4x 4x 2
 Maximum number of reciprocal cells 2x 2x 5

    FEWALD:  cpu time      0.0025: real time      0.0025


--------------------------------------- Iteration      1(   1)  ---------------------------------------


    POTLOK:  cpu time      0.0901: real time      0.0911
    SETDIJ:  cpu time      0.5415: real time      0.5417
    TRIAL :  cpu time      3.1269: real time      3.1294
    CORREC:  cpu time      0.0009: real time      0.0009
    --------------------------------------------
      LOOP:  cpu time      3.7611: real time      3.7667

 eigenvalue-minimisations  :   768
 total energy-change (2. order) :-0.1126831E+06  (-0.9777664E+05)
 number of electron     410.0000000 magnetization 
 augmentation part       -8.5657721 magnetization 

 DIPCOR: dipole corrections for dipol
 direction  3 min pos   269,
 dipolmoment           0.000000      0.000000    207.044324 electrons x Angstroem
 Tr[quadrupol]     -3461.619992

 energy correction for charged system         0.000000 eV
 dipol+quadrupol energy correction        -3364.086650 eV
 added-field ion interaction      10409.645153 eV  (added to PSCEN)


 Free energy of the ion-electron system (eV)
  ---------------------------------------------------
  alpha Z        PSCENC =      8353.44173960
  Ewald energy   TEWEN  =     62461.72862662
  -Hartree energ DENC   =    -79241.26640370
  -exchange      EXHF   =         0.00000000
  -V(xc)+E(xc)   XCENC  =      1084.22540659
  PAW double counting   =     38110.70953902   -60251.42393276
  entropy T*S    EENTRO =        -0.00000000
  eigenvalues    EBANDS =   -115462.10269013
  atomic energy  EATOM  =     32261.57517854
  ---------------------------------------------------
  free energy    TOTEN  =   -112683.11253621 eV

  energy without entropy =  -112683.11253621  energy(sigma->0) =  -112683.11253621
  exchange ACFDT corr.  =         0.00000000  see jH, gK, PRB 81, 115126


--------------------------------------------------------------------------------------------------------




--------------------------------------- Iteration      1(   2)  ---------------------------------------


    TRIAL :  cpu time     13.8034: real time     13.8139
    CORREC:  cpu time      0.0007: real time      0.0007
    --------------------------------------------
      LOOP:  cpu time     13.8061: real time     13.8166

 eigenvalue-minimisations  :  1536
 total energy-change (2. order) :-0.6912775E+04  (-0.6912775E+04)
 number of electron     410.0000000 magnetization 
 augmentation part       -8.5657721 magnetization 

 DIPCOR: dipole corrections for dipol
 direction  3 min pos   269,
 dipolmoment           0.000000      0.000000    207.044324 electrons x Angstroem
 Tr[quadrupol]     -3461.619992

 energy correction for charged system         0.000000 eV
 dipol+quadrupol energy correction        -3364.086650 eV
 added-field ion interaction      10409.645153 eV  (added to PSCEN)


 Free energy of the ion-electron system (eV)
  ---------------------------------------------------
  alpha Z        PSCENC =      8353.44173960
  Ewald energy   TEWEN  =     62461.72862662
  -Hartree energ DENC   =    -79241.26640370
  -exchange      EXHF   =         0.00000000
  -V(xc)+E(xc)   XCENC  =      1084.22540659
  PAW double counting   =     38110.70953902   -60251.42393276
  entropy T*S    EENTRO =        -0.00000174
  eigenvalues    EBANDS =   -122374.87795552
  atomic energy  EATOM  =     32261.57517854
  ---------------------------------------------------
  free energy    TOTEN  =   -119595.88780334 eV

  energy without entropy =  -119595.88780160  energy(sigma->0) =  -119595.88780247
  exchange ACFDT corr.  =         0.00000000  see jH, gK, PRB 81, 115126


--------------------------------------------------------------------------------------------------------




--------------------------------------- Iteration      1(   3)  ---------------------------------------


    TRIAL :  cpu time     13.6185: real time     13.6320
    CORREC:  cpu time      0.0007: real time      0.0007
    --------------------------------------------
      LOOP:  cpu time     13.6200: real time     13.6339

 eigenvalue-minimisations  :  1536
 total energy-change (2. order) :-0.7025308E+03  (-0.7025304E+03)
 number of electron     410.0000000 magnetization 
 augmentation part       -8.5657721 magnetization 

 DIPCOR: dipole corrections for dipol
 direction  3 min pos   269,
 dipolmoment           0.000000      0.000000    207.044324 electrons x Angstroem
 Tr[quadrupol]     -3461.619992

 energy correction for charged system         0.000000 eV
 dipol+quadrupol energy correction        -3364.086650 eV
 added-field ion interaction      10409.645153 eV  (added to PSCEN)


 Free energy of the ion-electron system (eV)
  ---------------------------------------------------
  alpha Z        PSCENC =      8353.44173960
  Ewald energy   TEWEN  =     62461.72862662
  -Hartree energ DENC   =    -79241.26640370
  -exchange      EXHF   =         0.00000000
  -V(xc)+E(xc)   XCENC  =      1084.22540659
  PAW double counting   =     38110.70953902   -60251.42393276
  entropy T*S    EENTRO =        -0.00251934
  eigenvalues    EBANDS =   -123077.40625258
  atomic energy  EATOM  =     32261.57517854
  ---------------------------------------------------
  free energy    TOTEN  =   -120298.41861800 eV

  energy without entropy =  -120298.41609866  energy(sigma->0) =  -120298.41735833
  exchange ACFDT corr.  =         0.00000000  see jH, gK, PRB 81, 115126


--------------------------------------------------------------------------------------------------------




--------------------------------------- Iteration      1(   4)  ---------------------------------------


    TRIAL :  cpu time     13.5738: real time     13.5803
    CORREC:  cpu time      0.0007: real time      0.0007
    --------------------------------------------
      LOOP:  cpu time     13.5752: real time     13.5821

 eigenvalue-minimisations  :  1536
 total energy-change (2. order) :-0.9840676E+02  (-0.9840655E+02)
 number of electron     410.0000000 magnetization 
 augmentation part       -8.5657721 magnetization 

 DIPCOR: dipole corrections for dipol
 direction  3 min pos   269,
 dipolmoment           0.000000      0.000000    207.044324 electrons x Angstroem
 Tr[quadrupol]     -3461.619992

 energy correction for charged system         0.000000 eV
 dipol+quadrupol energy correction        -3364.086650 eV
 added-field ion interaction      10409.645153 eV  (added to PSCEN)


 Free energy of the ion-electron system (eV)
  ---------------------------------------------------
  alpha Z        PSCENC =      8353.44173960
  Ewald energy   TEWEN  =     62461.72862662
  -Hartree energ DENC   =    -79241.26640370
  -exchange      EXHF   =         0.00000000
  -V(xc)+E(xc)   XCENC  =      1084.22540659
  PAW double counting   =     38110.70953902   -60251.42393276
  entropy T*S    EENTRO =        -0.00588800
  eigenvalues    EBANDS =   -123175.80964625
  atomic energy  EATOM  =     32261.57517854
  ---------------------------------------------------
  free energy    TOTEN  =   -120396.82538033 eV

  energy without entropy =  -120396.81949233  energy(sigma->0) =  -120396.82243633
  exchange ACFDT corr.  =         0.00000000  see jH, gK, PRB 81, 115126


--------------------------------------------------------------------------------------------------------




--------------------------------------- Iteration      1(   5)  ---------------------------------------


    TRIAL :  cpu time     13.6221: real time     13.6318
    CORREC:  cpu time      0.0007: real time      0.0007
    --------------------------------------------
      LOOP:  cpu time     13.6249: real time     13.6346

 eigenvalue-minimisations  :  1536
 total energy-change (2. order) :-0.1362084E+02  (-0.1362003E+02)
 number of electron     410.0000000 magnetization 
 augmentation part       -8.5657721 magnetization 

 DIPCOR: dipole corrections for dipol
 direction  3 min pos   269,
 dipolmoment           0.000000      0.000000    207.044324 electrons x Angstroem
 Tr[quadrupol]     -3461.619992

 energy correction for charged system         0.000000 eV
 dipol+quadrupol energy correction        -3364.086650 eV
 added-field ion interaction      10409.645153 eV  (added to PSCEN)


 Free energy of the ion-electron system (eV)
  ---------------------------------------------------
  alpha Z        PSCENC =      8353.44173960
  Ewald energy   TEWEN  =     62461.72862662
  -Hartree energ DENC   =    -79241.26640370
  -exchange      EXHF   =         0.00000000
  -V(xc)+E(xc)   XCENC  =      1084.22540659
  PAW double counting   =     38110.70953902   -60251.42393276
  entropy T*S    EENTRO =        -0.01238788
  eigenvalues    EBANDS =   -123189.42398907
  atomic energy  EATOM  =     32261.57517854
  ---------------------------------------------------
  free energy    TOTEN  =   -120410.44622304 eV

  energy without entropy =  -120410.43383515  energy(sigma->0) =  -120410.44002910
  exchange ACFDT corr.  =         0.00000000  see jH, gK, PRB 81, 115126


--------------------------------------------------------------------------------------------------------




--------------------------------------- Iteration      1(   6)  ---------------------------------------


    TRIAL :  cpu time     13.6838: real time     13.6901
    CORREC:  cpu time      0.0007: real time      0.0007
    --------------------------------------------
      LOOP:  cpu time     13.6856: real time     13.6919

 eigenvalue-minimisations  :  1536
 total energy-change (2. order) :-0.1959450E+01  (-0.1958946E+01)
 number of electron     410.0000000 magnetization 
 augmentation part       -8.5657721 magnetization 

 DIPCOR: dipole corrections for dipol
 direction  3 min pos   269,
 dipolmoment           0.000000      0.000000    207.044324 electrons x Angstroem
 Tr[quadrupol]     -3461.619992

 energy correction for charged system         0.000000 eV
 dipol+quadrupol energy correction        -3364.086650 eV
 added-field ion interaction      10409.645153 eV  (added to PSCEN)


 Free energy of the ion-electron system (eV)
  ---------------------------------------------------
  alpha Z        PSCENC =      8353.44173960
  Ewald energy   TEWEN  =     62461.72862662
  -Hartree energ DENC   =    -79241.26640370
  -exchange      EXHF   =         0.00000000
  -V(xc)+E(xc)   XCENC  =      1084.22540659
  PAW double counting   =     38110.70953902   -60251.42393276
  entropy T*S    EENTRO =        -0.01903629
  eigenvalues    EBANDS =   -123191.37679083
  atomic energy  EATOM  =     32261.57517854
  ---------------------------------------------------
  free energy    TOTEN  =   -120412.40567321 eV

  energy without entropy =  -120412.38663691  energy(sigma->0) =  -120412.39615506
  exchange ACFDT corr.  =         0.00000000  see jH, gK, PRB 81, 115126


--------------------------------------------------------------------------------------------------------




--------------------------------------- Iteration      1(   7)  ---------------------------------------


    TRIAL :  cpu time     13.8117: real time     13.8254
    CORREC:  cpu time      0.0007: real time      0.0007
    --------------------------------------------
      LOOP:  cpu time     13.8131: real time     13.8273

 eigenvalue-minimisations  :  1536
 total energy-change (2. order) :-0.3412736E+00  (-0.3412522E+00)
 number of electron     410.0000000 magnetization 
 augmentation part       -8.5657721 magnetization 

 DIPCOR: dipole corrections for dipol
 direction  3 min pos   269,
 dipolmoment           0.000000      0.000000    207.044324 electrons x Angstroem
 Tr[quadrupol]     -3461.619992

 energy correction for charged system         0.000000 eV
 dipol+quadrupol energy correction        -3364.086650 eV
 added-field ion interaction      10409.645153 eV  (added to PSCEN)


 Free energy of the ion-electron system (eV)
  ---------------------------------------------------
  alpha Z        PSCENC =      8353.44173960
  Ewald energy   TEWEN  =     62461.72862662
  -Hartree energ DENC   =    -79241.26640370
  -exchange      EXHF   =         0.00000000
  -V(xc)+E(xc)   XCENC  =      1084.22540659
  PAW double counting   =     38110.70953902   -60251.42393276
  entropy T*S    EENTRO =        -0.02040553
  eigenvalues    EBANDS =   -123191.71669519
  atomic energy  EATOM  =     32261.57517854
  ---------------------------------------------------
  free energy    TOTEN  =   -120412.74694680 eV

  energy without entropy =  -120412.72654127  energy(sigma->0) =  -120412.73674404
  exchange ACFDT corr.  =         0.00000000  see jH, gK, PRB 81, 115126


--------------------------------------------------------------------------------------------------------




--------------------------------------- Iteration      1(   8)  ---------------------------------------


    TRIAL :  cpu time     13.8595: real time     13.8641
    CORREC:  cpu time      0.0007: real time      0.0007
    --------------------------------------------
      LOOP:  cpu time     13.8609: real time     13.8660

 eigenvalue-minimisations  :  1536
 total energy-change (2. order) :-0.6468794E-01  (-0.6468710E-01)
 number of electron     410.0000000 magnetization 
 augmentation part       -8.5657721 magnetization 

 DIPCOR: dipole corrections for dipol
 direction  3 min pos   269,
 dipolmoment           0.000000      0.000000    207.044324 electrons x Angstroem
 Tr[quadrupol]     -3461.619992

 energy correction for charged system         0.000000 eV
 dipol+quadrupol energy correction        -3364.086650 eV
 added-field ion interaction      10409.645153 eV  (added to PSCEN)


 Free energy of the ion-electron system (eV)
  ---------------------------------------------------
  alpha Z        PSCENC =      8353.44173960
  Ewald energy   TEWEN  =     62461.72862662
  -Hartree energ DENC   =    -79241.26640370
  -exchange      EXHF   =         0.00000000
  -V(xc)+E(xc)   XCENC  =      1084.22540659
  PAW double counting   =     38110.70953902   -60251.42393276
  entropy T*S    EENTRO =        -0.02067473
  eigenvalues    EBANDS =   -123191.78111393
  atomic energy  EATOM  =     32261.57517854
  ---------------------------------------------------
  free energy    TOTEN  =   -120412.81163474 eV

  energy without entropy =  -120412.79096001  energy(sigma->0) =  -120412.80129738
  exchange ACFDT corr.  =         0.00000000  see jH, gK, PRB 81, 115126


--------------------------------------------------------------------------------------------------------




--------------------------------------- Iteration      1(   9)  ---------------------------------------


    TRIAL :  cpu time     13.8975: real time     13.9041
    CORREC:  cpu time      0.0006: real time      0.0006
    --------------------------------------------
      LOOP:  cpu time     13.8988: real time     13.9059

 eigenvalue-minimisations  :  1536
 total energy-change (2. order) :-0.1435501E-01  (-0.1435502E-01)
 number of electron     410.0000000 magnetization 
 augmentation part       -8.5657721 magnetization 

 DIPCOR: dipole corrections for dipol
 direction  3 min pos   269,
 dipolmoment           0.000000      0.000000    207.044324 electrons x Angstroem
 Tr[quadrupol]     -3461.619992

 energy correction for charged system         0.000000 eV
 dipol+quadrupol energy correction        -3364.086650 eV
 added-field ion interaction      10409.645153 eV  (added to PSCEN)


 Free energy of the ion-electron system (eV)
  ---------------------------------------------------
  alpha Z        PSCENC =      8353.44173960
  Ewald energy   TEWEN  =     62461.72862662
  -Hartree energ DENC   =    -79241.26640370
  -exchange      EXHF   =         0.00000000
  -V(xc)+E(xc)   XCENC  =      1084.22540659
  PAW double counting   =     38110.70953902   -60251.42393276
  entropy T*S    EENTRO =        -0.02073463
  eigenvalues    EBANDS =   -123191.79540905
  atomic energy  EATOM  =     32261.57517854
  ---------------------------------------------------
  free energy    TOTEN  =   -120412.82598976 eV

  energy without entropy =  -120412.80525513  energy(sigma->0) =  -120412.81562245
  exchange ACFDT corr.  =         0.00000000  see jH, gK, PRB 81, 115126


--------------------------------------------------------------------------------------------------------




--------------------------------------- Iteration      1(  10)  ---------------------------------------


    TRIAL :  cpu time     13.7947: real time     13.7999
    CORREC:  cpu time      0.0007: real time      0.0007
    --------------------------------------------
      LOOP:  cpu time     13.7961: real time     13.8026

 eigenvalue-minimisations  :  1536
 total energy-change (2. order) :-0.3495634E-02  (-0.3495602E-02)
 number of electron     410.0000000 magnetization 
 augmentation part       -8.5657721 magnetization 

 DIPCOR: dipole corrections for dipol
 direction  3 min pos   269,
 dipolmoment           0.000000      0.000000    207.044324 electrons x Angstroem
 Tr[quadrupol]     -3461.619992

 energy correction for charged system         0.000000 eV
 dipol+quadrupol energy correction        -3364.086650 eV
 added-field ion interaction      10409.645153 eV  (added to PSCEN)


 Free energy of the ion-electron system (eV)
  ---------------------------------------------------
  alpha Z        PSCENC =      8353.44173960
  Ewald energy   TEWEN  =     62461.72862662
  -Hartree energ DENC   =    -79241.26640370
  -exchange      EXHF   =         0.00000000
  -V(xc)+E(xc)   XCENC  =      1084.22540659
  PAW double counting   =     38110.70953902   -60251.42393276
  entropy T*S    EENTRO =        -0.02074796
  eigenvalues    EBANDS =   -123191.79889135
  atomic energy  EATOM  =     32261.57517854
  ---------------------------------------------------
  free energy    TOTEN  =   -120412.82948539 eV

  energy without entropy =  -120412.80873744  energy(sigma->0) =  -120412.81911141
  exchange ACFDT corr.  =         0.00000000  see jH, gK, PRB 81, 115126


--------------------------------------------------------------------------------------------------------




--------------------------------------- Iteration      1(  11)  ---------------------------------------


    TRIAL :  cpu time     13.6720: real time     13.6770
    CORREC:  cpu time      0.0007: real time      0.0007
    --------------------------------------------
      LOOP:  cpu time     13.6735: real time     13.6790

 eigenvalue-minimisations  :  1536
 total energy-change (2. order) :-0.9878862E-03  (-0.9878724E-03)
 number of electron     410.0000000 magnetization 
 augmentation part       -8.5657721 magnetization 

 DIPCOR: dipole corrections for dipol
 direction  3 min pos   269,
 dipolmoment           0.000000      0.000000    207.044324 electrons x Angstroem
 Tr[quadrupol]     -3461.619992

 energy correction for charged system         0.000000 eV
 dipol+quadrupol energy correction        -3364.086650 eV
 added-field ion interaction      10409.645153 eV  (added to PSCEN)


 Free energy of the ion-electron system (eV)
  ---------------------------------------------------
  alpha Z        PSCENC =      8353.44173960
  Ewald energy   TEWEN  =     62461.72862662
  -Hartree energ DENC   =    -79241.26640370
  -exchange      EXHF   =         0.00000000
  -V(xc)+E(xc)   XCENC  =      1084.22540659
  PAW double counting   =     38110.70953902   -60251.42393276
  entropy T*S    EENTRO =        -0.02075123
  eigenvalues    EBANDS =   -123191.79987597
  atomic energy  EATOM  =     32261.57517854
  ---------------------------------------------------
  free energy    TOTEN  =   -120412.83047328 eV

  energy without entropy =  -120412.80972205  energy(sigma->0) =  -120412.82009766
  exchange ACFDT corr.  =         0.00000000  see jH, gK, PRB 81, 115126


--------------------------------------------------------------------------------------------------------




--------------------------------------- Iteration      1(  12)  ---------------------------------------


    TRIAL :  cpu time     13.6335: real time     13.6462
    CORREC:  cpu time      0.0007: real time      0.0007
    --------------------------------------------
      LOOP:  cpu time     13.6354: real time     13.6481

 eigenvalue-minimisations  :  1536
 total energy-change (2. order) :-0.3086437E-03  (-0.3086351E-03)
 number of electron     410.0000000 magnetization 
 augmentation part       -8.5657721 magnetization 

 DIPCOR: dipole corrections for dipol
 direction  3 min pos   269,
 dipolmoment           0.000000      0.000000    207.044324 electrons x Angstroem
 Tr[quadrupol]     -3461.619992

 energy correction for charged system         0.000000 eV
 dipol+quadrupol energy correction        -3364.086650 eV
 added-field ion interaction      10409.645153 eV  (added to PSCEN)


 Free energy of the ion-electron system (eV)
  ---------------------------------------------------
  alpha Z        PSCENC =      8353.44173960
  Ewald energy   TEWEN  =     62461.72862662
  -Hartree energ DENC   =    -79241.26640370
  -exchange      EXHF   =         0.00000000
  -V(xc)+E(xc)   XCENC  =      1084.22540659
  PAW double counting   =     38110.70953902   -60251.42393276
  entropy T*S    EENTRO =        -0.02075205
  eigenvalues    EBANDS =   -123191.80018379
  atomic energy  EATOM  =     32261.57517854
  ---------------------------------------------------
  free energy    TOTEN  =   -120412.83078192 eV

  energy without entropy =  -120412.81002988  energy(sigma->0) =  -120412.82040590
  exchange ACFDT corr.  =         0.00000000  see jH, gK, PRB 81, 115126


--------------------------------------------------------------------------------------------------------




--------------------------------------- Iteration      1(  13)  ---------------------------------------


    TRIAL :  cpu time     13.7936: real time     13.7984
    CORREC:  cpu time      0.0007: real time      0.0007
    --------------------------------------------
      LOOP:  cpu time     13.7951: real time     13.8004

 eigenvalue-minimisations  :  1536
 total energy-change (2. order) :-0.1094446E-03  (-0.1094789E-03)
 number of electron     410.0000000 magnetization 
 augmentation part       -8.5657721 magnetization 

 DIPCOR: dipole corrections for dipol
 direction  3 min pos   269,
 dipolmoment           0.000000      0.000000    207.044324 electrons x Angstroem
 Tr[quadrupol]     -3461.619992

 energy correction for charged system         0.000000 eV
 dipol+quadrupol energy correction        -3364.086650 eV
 added-field ion interaction      10409.645153 eV  (added to PSCEN)


 Free energy of the ion-electron system (eV)
  ---------------------------------------------------
  alpha Z        PSCENC =      8353.44173960
  Ewald energy   TEWEN  =     62461.72862662
  -Hartree energ DENC   =    -79241.26640370
  -exchange      EXHF   =         0.00000000
  -V(xc)+E(xc)   XCENC  =      1084.22540659
  PAW double counting   =     38110.70953902   -60251.42393276
  entropy T*S    EENTRO =        -0.02075227
  eigenvalues    EBANDS =   -123191.80029301
  atomic energy  EATOM  =     32261.57517854
  ---------------------------------------------------
  free energy    TOTEN  =   -120412.83089137 eV

  energy without entropy =  -120412.81013910  energy(sigma->0) =  -120412.82051523
  exchange ACFDT corr.  =         0.00000000  see jH, gK, PRB 81, 115126


--------------------------------------------------------------------------------------------------------




--------------------------------------- Iteration      1(  14)  ---------------------------------------


    TRIAL :  cpu time     13.6248: real time     13.6318
    CORREC:  cpu time      0.0048: real time      0.0048
    --------------------------------------------
      LOOP:  cpu time     13.6309: real time     13.6379

 eigenvalue-minimisations  :  1536
 total energy-change (2. order) :-0.4213277E-04  (-0.4212712E-04)
 number of electron     410.0000000 magnetization 
 augmentation part       -8.5657721 magnetization 

 DIPCOR: dipole corrections for dipol
 direction  3 min pos   269,
 dipolmoment           0.000000      0.000000    207.044324 electrons x Angstroem
 Tr[quadrupol]     -3461.619992

 energy correction for charged system         0.000000 eV
 dipol+quadrupol energy correction        -3364.086650 eV
 added-field ion interaction      10409.645153 eV  (added to PSCEN)


 Free energy of the ion-electron system (eV)
  ---------------------------------------------------
  alpha Z        PSCENC =      8353.44173960
  Ewald energy   TEWEN  =     62461.72862662
  -Hartree energ DENC   =    -79241.26640370
  -exchange      EXHF   =         0.00000000
  -V(xc)+E(xc)   XCENC  =      1084.22540659
  PAW double counting   =     38110.70953902   -60251.42393276
  entropy T*S    EENTRO =        -0.02075233
  eigenvalues    EBANDS =   -123191.80033508
  atomic energy  EATOM  =     32261.57517854
  ---------------------------------------------------
  free energy    TOTEN  =   -120412.83093350 eV

  energy without entropy =  -120412.81018117  energy(sigma->0) =  -120412.82055733
  exchange ACFDT corr.  =         0.00000000  see jH, gK, PRB 81, 115126


--------------------------------------------------------------------------------------------------------




--------------------------------------- Iteration      1(  15)  ---------------------------------------


    POTLOK:  cpu time      0.1040: real time      0.1041
    SETDIJ:  cpu time      1.0652: real time      1.0655
    TRIAL :  cpu time     29.5241: real time     29.6037
    CORREC:  cpu time      0.0007: real time      0.0007
    CHARGE:  cpu time      0.1687: real time      0.1688
    --------------------------------------------
      LOOP:  cpu time     30.8633: real time     30.9463

 eigenvalue-minimisations  :  1536
 total energy-change (2. order) : 0.2216565E+05  (-0.2084608E+02)
 number of electron     410.0000003 magnetization 
 augmentation part       45.8563097 magnetization 

 DIPCOR: dipole corrections for dipol
 direction  3 min pos   269,
 dipolmoment           0.000000      0.000000    207.044324 electrons x Angstroem
 Tr[quadrupol]     -3461.619992

 energy correction for charged system         0.000000 eV
 dipol+quadrupol energy correction        -3364.086650 eV
 added-field ion interaction      10409.645152 eV  (added to PSCEN)


 Free energy of the ion-electron system (eV)
  ---------------------------------------------------
  alpha Z        PSCENC =      8353.44173926
  Ewald energy   TEWEN  =     62461.72862662
  -Hartree energ DENC   =    -79241.26640370
  -exchange      EXHF   =      1137.95704984
  -V(xc)+E(xc)   XCENC  =       819.59035192
  PAW double counting   =     38420.70260956   -38128.07159109
  entropy T*S    EENTRO =        -0.01167452
  eigenvalues    EBANDS =   -124332.82382044
  atomic energy  EATOM  =     32261.57517854
  ---------------------------------------------------
  free energy    TOTEN  =    -98247.17793401 eV

  energy without entropy =   -98247.16625949  energy(sigma->0) =   -98247.17209675
  exchange ACFDT corr.  =        -0.08263920  see jH, gK, PRB 81, 115126


--------------------------------------------------------------------------------------------------------




--------------------------------------- Iteration      1(  16)  ---------------------------------------


    POTLOK:  cpu time      0.1014: real time      0.1014
    SETDIJ:  cpu time      1.0560: real time      1.0564
    TRIAL :  cpu time     15.8554: real time     15.8748
    CORREC:  cpu time     16.9342: real time     16.9686
    CHARGE:  cpu time      0.1679: real time      0.1682
    --------------------------------------------
      LOOP:  cpu time     34.1168: real time     34.1714

 eigenvalue-minimisations  :     0
 total energy-change (2. order) : 0.1226936E+07  (-0.6615638E+06)
 number of electron     410.0000004 magnetization 
 augmentation part       44.0293412 magnetization 

 DIPCOR: dipole corrections for dipol
 direction  3 min pos   209,
 dipolmoment           0.000000      0.000000  -2029.455632 electrons x Angstroem
 Tr[quadrupol]    -11869.075307

 energy correction for charged system         0.000000 eV
 dipol+quadrupol energy correction      -323221.051134 eV
 added-field ion interaction     341761.825362 eV  (added to PSCEN)


 Free energy of the ion-electron system (eV)
  ---------------------------------------------------
  alpha Z        PSCENC =   -139265.94830941
  Ewald energy   TEWEN  =     62461.72862662
  -Hartree energ DENC   =   -331692.66783826
  -exchange      EXHF   =      1132.34839102
  -V(xc)+E(xc)   XCENC  =      1045.43254289
  PAW double counting   =     69945.78535222   -70851.41877296
  entropy T*S    EENTRO =        -0.00000000
  eigenvalues    EBANDS =   1503651.68476436
  atomic energy  EATOM  =     32261.57517854
  ---------------------------------------------------
  free energy    TOTEN  =   1128688.50826049 eV

  energy without entropy =  1128688.50826049  energy(sigma->0) =  1128688.50826049
  exchange ACFDT corr.  =        -0.04267722  see jH, gK, PRB 81, 115126


--------------------------------------------------------------------------------------------------------




--------------------------------------- Iteration      1(  17)  ---------------------------------------


    POTLOK:  cpu time      0.1090: real time      0.1090
    SETDIJ:  cpu time      1.0509: real time      1.0511
    TRIAL :  cpu time     16.0591: real time     16.1013
    CORREC:  cpu time     17.0977: real time     17.1235
    CHARGE:  cpu time      0.1615: real time      0.1615
    --------------------------------------------
      LOOP:  cpu time     34.4802: real time     34.5484

 eigenvalue-minimisations  :     0
 total energy-change (2. order) :-0.3667365E+06  (-0.9316529E+06)
 number of electron     410.0000003 magnetization 
 augmentation part       37.6387596 magnetization 

 DIPCOR: dipole corrections for dipol
 direction  3 min pos   210,
 dipolmoment           0.000000      0.000000  -1222.145543 electrons x Angstroem
 Tr[quadrupol]     -7314.820287

 energy correction for charged system         0.000000 eV
 dipol+quadrupol energy correction      -117215.858445 eV
 added-field ion interaction     200482.752800 eV  (added to PSCEN)


 Free energy of the ion-electron system (eV)
  ---------------------------------------------------
  alpha Z        PSCENC =     64007.28543383
  Ewald energy   TEWEN  =     62461.72862662
  -Hartree energ DENC   =   -387802.76042452
  -exchange      EXHF   =      1060.52093909
  -V(xc)+E(xc)   XCENC  =      1108.10112469
  PAW double counting   =    512448.78831616  -513324.00387749
  entropy T*S    EENTRO =        -0.00000000
  eigenvalues    EBANDS =    989730.74033324
  atomic energy  EATOM  =     32261.57517854
  ---------------------------------------------------
  free energy    TOTEN  =    761951.97565017 eV

  energy without entropy =   761951.97565017  energy(sigma->0) =   761951.97565017
  exchange ACFDT corr.  =        -3.43831837  see jH, gK, PRB 81, 115126


--------------------------------------------------------------------------------------------------------




--------------------------------------- Iteration      1(  18)  ---------------------------------------


    POTLOK:  cpu time      0.0984: real time      0.0986
    SETDIJ:  cpu time      1.1261: real time      1.1269
    TRIAL :  cpu time     15.6961: real time     15.7451
    CORREC:  cpu time     16.7450: real time     17.0699
    CHARGE:  cpu time      0.1606: real time      0.1608
    --------------------------------------------
      LOOP:  cpu time     33.8275: real time     34.2032

 eigenvalue-minimisations  :     0
 total energy-change (2. order) :-0.4158233E+06  (-0.3521134E+07)
 number of electron     410.0000004 magnetization 
 augmentation part       60.0160620 magnetization 

 DIPCOR: dipole corrections for dipol
[...]
     -1.932228  5.523151  7.030997            0           0           0  
      3.826368  2.209171  7.041133            0           0           0  
      0.014190  2.196273  6.868739            0           0           0  
      1.921006  3.318614  3.872966            0           0           0  
      5.726917  3.316853  3.867838            0           0           0  
      3.823548  0.000266  3.880308            0           0           0  
      3.822439  6.611997  3.872955            0           0           0  
     -0.000038  4.415528  0.780686            0           0           0  
      1.911932  1.103898  0.780686            0           0           0  
      5.735872  1.103898  0.780686            0           0           0  
      3.823902  4.415528  0.780686            0           0           0  
      0.059248  6.468052 10.980477            0           0           0  
     -0.030897  0.257906 10.689476            0           0           0  
     -1.672271  3.133515 10.663005            0           0           0  
      1.540329  3.146644 10.400384            0           0           0  
      3.839637  2.069768  9.299898            0           0           0  
     -1.883796  5.550785  9.309820            0           0           0  
      1.860784  5.561892  9.240899            0           0           0  
     -0.027710  4.269322  7.809073            0           0           0  
      3.826887  4.393906  7.766284            0           0           0  
      5.936522  1.210892  7.877662            0           0           0  
      1.753727  1.172381  7.818074            0           0           0  
      1.937350  3.334408  6.174007            0           0           0  
      5.708228  3.317183  6.185781            0           0           0  
      3.844894  0.007701  6.355333            0           0           0  
      3.812797  6.580731  6.164073            0           0           0  
      1.878833  5.538550  4.626861            0           0           0  
     -1.877053  5.518353  4.666552            0           0           0  
      3.842331  2.178084  4.666592            0           0           0  
     -0.014617  2.216237  4.627005            0           0           0  
      3.824938  4.414947  3.088783            0           0           0  
     -0.001712  4.412316  3.068894            0           0           0  
      5.737841  1.106988  3.068884            0           0           0  
      1.910795  1.104574  3.082540            0           0           0  
      3.823940  0.000000  1.561371            0           0           0  
      1.911970  3.311629  1.561371            0           0           0  
     -1.911970  3.311629  1.561371            0           0           0  
      0.000000  0.000000  1.561371            0           0           0  
      3.823978  2.207731  0.000000            0           0           0  
      1.912008  5.519360  0.000000            0           0           0  
     -1.911932  5.519360  0.000000            0           0           0  
      0.000038  2.207731  0.000000            0           0           0  
      4.721902  4.257583 14.270144     0.169578    0.052772   -0.086575  
      6.433949  0.758333 14.193852     0.698986    0.338856    0.262652  
      3.191991  2.141482 12.266187    -0.020328    0.045570   -0.017793  
      2.161745  1.467626 12.696776     0.106797   -0.130696    0.010578  
      6.083085  0.910317 13.130867     0.387076    0.144585    0.277005  
      4.432602  4.461924 13.197509     0.074139    0.028109   -0.058446  
 
  16 f  =    1.574252 THz     9.891315 2PiTHz   52.511386 cm-1     6.510579 meV
             X         Y         Z           dx          dy          dz
      3.810132  4.367584 10.119959            0           0           0  
      1.932296  5.514575  7.025673            0           0           0  
      2.043826  1.045129 10.344884            0           0           0  
      5.660880  1.020276 10.203499            0           0           0  
     -0.045773  4.498382 10.070033            0           0           0  
     -1.932228  5.523151  7.030997            0           0           0  
      3.826368  2.209171  7.041133            0           0           0  
      0.014190  2.196273  6.868739            0           0           0  
      1.921006  3.318614  3.872966            0           0           0  
      5.726917  3.316853  3.867838            0           0           0  
      3.823548  0.000266  3.880308            0           0           0  
      3.822439  6.611997  3.872955            0           0           0  
     -0.000038  4.415528  0.780686            0           0           0  
      1.911932  1.103898  0.780686            0           0           0  
      5.735872  1.103898  0.780686            0           0           0  
      3.823902  4.415528  0.780686            0           0           0  
      0.059248  6.468052 10.980477            0           0           0  
     -0.030897  0.257906 10.689476            0           0           0  
     -1.672271  3.133515 10.663005            0           0           0  
      1.540329  3.146644 10.400384            0           0           0  
      3.839637  2.069768  9.299898            0           0           0  
     -1.883796  5.550785  9.309820            0           0           0  
      1.860784  5.561892  9.240899            0           0           0  
     -0.027710  4.269322  7.809073            0           0           0  
      3.826887  4.393906  7.766284            0           0           0  
      5.936522  1.210892  7.877662            0           0           0  
      1.753727  1.172381  7.818074            0           0           0  
      1.937350  3.334408  6.174007            0           0           0  
      5.708228  3.317183  6.185781            0           0           0  
      3.844894  0.007701  6.355333            0           0           0  
      3.812797  6.580731  6.164073            0           0           0  
      1.878833  5.538550  4.626861            0           0           0  
     -1.877053  5.518353  4.666552            0           0           0  
      3.842331  2.178084  4.666592            0           0           0  
     -0.014617  2.216237  4.627005            0           0           0  
      3.824938  4.414947  3.088783            0           0           0  
     -0.001712  4.412316  3.068894            0           0           0  
      5.737841  1.106988  3.068884            0           0           0  
      1.910795  1.104574  3.082540            0           0           0  
      3.823940  0.000000  1.561371            0           0           0  
      1.911970  3.311629  1.561371            0           0           0  
     -1.911970  3.311629  1.561371            0           0           0  
      0.000000  0.000000  1.561371            0           0           0  
      3.823978  2.207731  0.000000            0           0           0  
      1.912008  5.519360  0.000000            0           0           0  
     -1.911932  5.519360  0.000000            0           0           0  
      0.000038  2.207731  0.000000            0           0           0  
      4.721902  4.257583 14.270144     0.242902    0.194736    0.143843  
      6.433949  0.758333 14.193852    -0.042986   -0.210212   -0.131574  
      3.191991  2.141482 12.266187    -0.011918    0.211674   -0.000538  
      2.161745  1.467626 12.696776     0.554276   -0.606968    0.070485  
      6.083085  0.910317 13.130867    -0.055179   -0.101883   -0.096418  
      4.432602  4.461924 13.197509     0.187176    0.140695    0.126246  
 
  17 f  =    1.180993 THz     7.420399 2PiTHz   39.393694 cm-1     4.884193 meV
             X         Y         Z           dx          dy          dz
      3.810132  4.367584 10.119959            0           0           0  
      1.932296  5.514575  7.025673            0           0           0  
      2.043826  1.045129 10.344884            0           0           0  
      5.660880  1.020276 10.203499            0           0           0  
     -0.045773  4.498382 10.070033            0           0           0  
     -1.932228  5.523151  7.030997            0           0           0  
      3.826368  2.209171  7.041133            0           0           0  
      0.014190  2.196273  6.868739            0           0           0  
      1.921006  3.318614  3.872966            0           0           0  
      5.726917  3.316853  3.867838            0           0           0  
      3.823548  0.000266  3.880308            0           0           0  
      3.822439  6.611997  3.872955            0           0           0  
     -0.000038  4.415528  0.780686            0           0           0  
      1.911932  1.103898  0.780686            0           0           0  
      5.735872  1.103898  0.780686            0           0           0  
      3.823902  4.415528  0.780686            0           0           0  
      0.059248  6.468052 10.980477            0           0           0  
     -0.030897  0.257906 10.689476            0           0           0  
     -1.672271  3.133515 10.663005            0           0           0  
      1.540329  3.146644 10.400384            0           0           0  
      3.839637  2.069768  9.299898            0           0           0  
     -1.883796  5.550785  9.309820            0           0           0  
      1.860784  5.561892  9.240899            0           0           0  
     -0.027710  4.269322  7.809073            0           0           0  
      3.826887  4.393906  7.766284            0           0           0  
      5.936522  1.210892  7.877662            0           0           0  
      1.753727  1.172381  7.818074            0           0           0  
      1.937350  3.334408  6.174007            0           0           0  
      5.708228  3.317183  6.185781            0           0           0  
      3.844894  0.007701  6.355333            0           0           0  
      3.812797  6.580731  6.164073            0           0           0  
      1.878833  5.538550  4.626861            0           0           0  
     -1.877053  5.518353  4.666552            0           0           0  
      3.842331  2.178084  4.666592            0           0           0  
     -0.014617  2.216237  4.627005            0           0           0  
      3.824938  4.414947  3.088783            0           0           0  
     -0.001712  4.412316  3.068894            0           0           0  
      5.737841  1.106988  3.068884            0           0           0  
      1.910795  1.104574  3.082540            0           0           0  
      3.823940  0.000000  1.561371            0           0           0  
      1.911970  3.311629  1.561371            0           0           0  
     -1.911970  3.311629  1.561371            0           0           0  
      0.000000  0.000000  1.561371            0           0           0  
      3.823978  2.207731  0.000000            0           0           0  
      1.912008  5.519360  0.000000            0           0           0  
     -1.911932  5.519360  0.000000            0           0           0  
      0.000038  2.207731  0.000000            0           0           0  
      4.721902  4.257583 14.270144    -0.033034    0.113621    0.071499  
      6.433949  0.758333 14.193852    -0.484121    0.697325    0.297845  
      3.191991  2.141482 12.266187    -0.002736    0.057146    0.016005  
      2.161745  1.467626 12.696776     0.115989   -0.127034    0.011476  
      6.083085  0.910317 13.130867    -0.201914    0.268354    0.137912  
      4.432602  4.461924 13.197509     0.003354    0.065276    0.047033  
 
  18 f/i=    2.509932 THz    15.770368 2PiTHz   83.722320 cm-1    10.380240 meV
             X         Y         Z           dx          dy          dz
      3.810132  4.367584 10.119959            0           0           0  
      1.932296  5.514575  7.025673            0           0           0  
      2.043826  1.045129 10.344884            0           0           0  
      5.660880  1.020276 10.203499            0           0           0  
     -0.045773  4.498382 10.070033            0           0           0  
     -1.932228  5.523151  7.030997            0           0           0  
      3.826368  2.209171  7.041133            0           0           0  
      0.014190  2.196273  6.868739            0           0           0  
      1.921006  3.318614  3.872966            0           0           0  
      5.726917  3.316853  3.867838            0           0           0  
      3.823548  0.000266  3.880308            0           0           0  
      3.822439  6.611997  3.872955            0           0           0  
     -0.000038  4.415528  0.780686            0           0           0  
      1.911932  1.103898  0.780686            0           0           0  
      5.735872  1.103898  0.780686            0           0           0  
      3.823902  4.415528  0.780686            0           0           0  
      0.059248  6.468052 10.980477            0           0           0  
     -0.030897  0.257906 10.689476            0           0           0  
     -1.672271  3.133515 10.663005            0           0           0  
      1.540329  3.146644 10.400384            0           0           0  
      3.839637  2.069768  9.299898            0           0           0  
     -1.883796  5.550785  9.309820            0           0           0  
      1.860784  5.561892  9.240899            0           0           0  
     -0.027710  4.269322  7.809073            0           0           0  
      3.826887  4.393906  7.766284            0           0           0  
      5.936522  1.210892  7.877662            0           0           0  
      1.753727  1.172381  7.818074            0           0           0  
      1.937350  3.334408  6.174007            0           0           0  
      5.708228  3.317183  6.185781            0           0           0  
      3.844894  0.007701  6.355333            0           0           0  
      3.812797  6.580731  6.164073            0           0           0  
      1.878833  5.538550  4.626861            0           0           0  
     -1.877053  5.518353  4.666552            0           0           0  
      3.842331  2.178084  4.666592            0           0           0  
     -0.014617  2.216237  4.627005            0           0           0  
      3.824938  4.414947  3.088783            0           0           0  
     -0.001712  4.412316  3.068894            0           0           0  
      5.737841  1.106988  3.068884            0           0           0  
      1.910795  1.104574  3.082540            0           0           0  
      3.823940  0.000000  1.561371            0           0           0  
      1.911970  3.311629  1.561371            0           0           0  
     -1.911970  3.311629  1.561371            0           0           0  
      0.000000  0.000000  1.561371            0           0           0  
      3.823978  2.207731  0.000000            0           0           0  
      1.912008  5.519360  0.000000            0           0           0  
     -1.911932  5.519360  0.000000            0           0           0  
      0.000038  2.207731  0.000000            0           0           0  
      4.721902  4.257583 14.270144    -0.019462   -0.083643   -0.002993  
      6.433949  0.758333 14.193852    -0.007436    0.017174    0.008840  
      3.191991  2.141482 12.266187     0.338935    0.168700   -0.639922  
      2.161745  1.467626 12.696776     0.452437    0.462010    0.134403  
      6.083085  0.910317 13.130867     0.005697   -0.016839   -0.001091  
      4.432602  4.461924 13.197509     0.034744    0.039977    0.003393  
 
 Finite differences POTIM=  1.500000000000000E-002
 writing wavefunctions
     LOOP+:  cpu time    647.4390: real time    648.6915
    4ORBIT:  cpu time      0.0000: real time      0.0000



 total charge

# of ion       s       p       d       f       tot
--------------------------------------------------
    1        1.984   5.636   0.511   0.851   8.982
    2        1.981   5.609   0.710   0.690   8.990
    3        1.986   5.616   0.756   0.731   9.088
    4        1.989   5.605   0.780   0.737   9.111
    5        1.996   5.604   0.862   0.761   9.222
    6        1.981   5.610   0.695   0.686   8.972
    7        1.981   5.608   0.698   0.687   8.974
    8        1.990   5.609   0.776   0.714   9.089
    9        1.983   5.612   0.712   0.691   8.998
   10        1.984   5.613   0.718   0.693   9.008
   11        1.983   5.610   0.708   0.691   8.992
   12        1.984   5.613   0.714   0.692   9.002
   13        1.982   5.597   0.691   0.704   8.974
   14        1.981   5.597   0.688   0.705   8.971
   15        1.982   5.597   0.691   0.704   8.974
   16        1.981   5.598   0.686   0.706   8.971
   17        1.587   3.478   0.000   0.000   5.065
   18        1.582   3.464   0.000   0.000   5.046
   19        1.582   3.468   0.000   0.000   5.050
   20        1.588   3.487   0.000   0.000   5.076
   21        1.578   3.508   0.000   0.000   5.086
   22        1.579   3.509   0.000   0.000   5.088
   23        1.579   3.511   0.000   0.000   5.090
   24        1.576   3.499   0.000   0.000   5.075
   25        1.577   3.508   0.000   0.000   5.086
   26        1.575   3.484   0.000   0.000   5.059
   27        1.575   3.471   0.000   0.000   5.046
   28        1.578   3.500   0.000   0.000   5.078
   29        1.578   3.494   0.000   0.000   5.072
   30        1.577   3.492   0.000   0.000   5.069
   31        1.579   3.505   0.000   0.000   5.084
   32        1.578   3.495   0.000   0.000   5.073
   33        1.577   3.494   0.000   0.000   5.071
   34        1.577   3.493   0.000   0.000   5.070
   35        1.579   3.514   0.000   0.000   5.093
   36        1.578   3.507   0.000   0.000   5.085
   37        1.577   3.500   0.000   0.000   5.077
   38        1.577   3.500   0.000   0.000   5.077
   39        1.577   3.500   0.000   0.000   5.076
   40        1.578   3.495   0.000   0.000   5.073
   41        1.578   3.496   0.000   0.000   5.074
   42        1.578   3.497   0.000   0.000   5.075
   43        1.578   3.496   0.000   0.000   5.074
   44        1.575   3.435   0.000   0.000   5.010
   45        1.575   3.435   0.000   0.000   5.010
   46        1.575   3.435   0.000   0.000   5.010
   47        1.575   3.435   0.000   0.000   5.010
   48        1.635   3.545   0.000   0.000   5.180
   49        1.638   3.569   0.000   0.000   5.207
   50        1.592   3.369   0.000   0.000   4.962
   51        1.599   3.360   0.000   0.000   4.959
   52        1.042   1.466   0.000   0.000   2.507
   53        1.033   1.439   0.000   0.000   2.471
--------------------------------------------------
tot         89.210 214.585  11.395  11.442 326.632
 

 total amount of memory used by VASP MPI-rank0  1264862. kBytes
=======================================================================

   base      :      30000. kBytes
   nonlr-proj:     683756. kBytes
   fftplans  :       4975. kBytes
   grid      :      23543. kBytes
   one-center:       2605. kBytes
   HF        :       1204. kBytes
   wavefun   :       1455. kBytes
   fock_wrk  :     517324. kBytes
 
  
  
 General timing and accounting informations for this job:
 ========================================================
  
                  Total CPU time used (sec):    41834.129
                            User time (sec):    37466.540
                          System time (sec):     4367.589
                         Elapsed time (sec):    41933.812
  
                   Maximum memory used (kb):     1793284.
                   Average memory used (kb):          N/A
  
                          Minor page faults:     85910662
                          Major page faults:            0
                 Voluntary context switches:       679658
