       N       E                     dE             d eps       ncg     rms          ort
DAV:   1     0.345399246665E+03    0.34540E+03   -0.81838E+02  1792   0.228E+01
DAV:   2     0.345270837320E+03   -0.12841E+00   -0.12841E+00  1792   0.176E+00
DAV:   3     0.345270559651E+03   -0.27767E-03   -0.27767E-03  1792   0.750E-02
DAV:   4     0.345270559636E+03   -0.15072E-07   -0.14385E-07  1792   0.509E-04
DAV:   5     0.345270559635E+03   -0.14552E-09    0.35989E-09  1792   0.373E-05
DAV:   6     0.345270559635E+03   -0.29104E-10    0.44832E-09  1792   0.729E-07
DAV:   7     0.345270559635E+03    0.72760E-10    0.44741E-09  1792   0.403E-07
DAV:   8     0.345270559636E+03    0.27285E-09    0.43537E-09  1792   0.395E-07
DAV:   9     0.345270559636E+03    0.43656E-10    0.43391E-09  1792   0.397E-07
DAV:  10     0.345270559636E+03   -0.20009E-09    0.42996E-09  1792   0.399E-07
DAV:  11     0.345270559635E+03   -0.24738E-09    0.43967E-09  1792   0.400E-07
DAV:  12     0.345270559635E+03    0.58208E-10    0.43625E-09  1792   0.400E-07
DAV:  13     0.345270559636E+03    0.28740E-09    0.44409E-09  1792   0.400E-07
DAV:  14     0.345270559635E+03   -0.17099E-09    0.44301E-09  1792   0.401E-07
DAV:  15     0.345270559636E+03    0.72760E-10    0.43563E-09  1792   0.401E-07
SDA:  16     0.120469350632E+04    0.85942E+03    0.43563E-09  1792   0.225E+06 0.000E+00
CGA:  17     0.142002440815E+05    0.12996E+05   -0.13795E+05  1792   0.291E+07-0.210E+06
CGA:  18     0.191731921177E+06    0.17753E+06   -0.22794E+06  1792   0.535E+07-0.234E+06
CGA:  19     0.596406081229E+05   -0.13209E+06   -0.48217E+06  1792   0.212E+07-0.229E+05
CGA:  20     0.183585124600E+06    0.12394E+06   -0.17192E+06  1792   0.314E+08 0.115E+06
CGA:  21     0.301805065984E+06    0.11822E+06   -0.29127E+07  1792   0.421E+08 0.133E+05
CGA:  22     0.285821753336E+06   -0.15983E+05   -0.36364E+07  1792   0.394E+08 0.365E+06
CGA:  23     0.130386955333E+06   -0.15543E+06   -0.33960E+07  1792   0.518E+07 0.164E+06
CGA:  24     0.134073672561E+06    0.36867E+04   -0.43731E+06  1792   0.645E+07 0.930E+05
CGA:  25     0.163008273150E+06    0.28935E+05   -0.51923E+06  1792   0.417E+07 0.116E+06
CGA:  26     0.196140904826E+06    0.33133E+05   -0.33570E+06  1792   0.604E+07 0.243E+06
CGA:  27     0.228377191804E+06    0.32236E+05   -0.48980E+06  1792   0.481E+07 0.216E+06
CGA:  28     0.238076112942E+06    0.96989E+04   -0.37531E+06  1792   0.443E+07 0.327E+06
CGA:  29     0.239666907554E+06    0.15908E+04   -0.34273E+06  1792   0.299E+07 0.272E+06
CGA:  30     0.293228397197E+06    0.53561E+05   -0.22346E+06  1792   0.574E+07 0.375E+06
CGA:  31     0.271964999463E+06   -0.21263E+05   -0.44985E+06  1792   0.210E+07 0.289E+06
CGA:  32     0.318082479125E+06    0.46117E+05   -0.15936E+06  1792   0.561E+07 0.406E+06
CGA:  33     0.314702516661E+06   -0.33800E+04   -0.44033E+06  1792   0.215E+07 0.327E+06
CGA:  34     0.330227593240E+06    0.15525E+05   -0.16185E+06  1792   0.372E+07 0.438E+06
CGA:  35     0.301123801738E+06   -0.29104E+05   -0.28946E+06  1792   0.176E+07 0.387E+06
CGA:  36     0.321968873587E+06    0.20845E+05   -0.12865E+06  1792   0.352E+07 0.582E+06
CGA:  37     0.324608228927E+06    0.26394E+04   -0.28122E+06  1792   0.172E+07 0.439E+06
CGA:  38     0.286730128947E+06   -0.37878E+05   -0.12627E+06  1792   0.190E+07 0.753E+06
CGA:  39     0.386851624508E+06    0.10012E+06   -0.14342E+06  1792   0.354E+07 0.465E+06
CGA:  40     0.311342207812E+06   -0.75509E+05   -0.27239E+06  1792   0.102E+07 0.433E+06
CGA:  41     0.204955830967E+06   -0.10639E+06   -0.15176E+06  1792   0.255E+07 0.327E+06
CGA:  42     0.200291754744E+06   -0.46641E+04   -0.17619E+06  1792   0.918E+06 0.202E+06
CGA:  43     0.187103895923E+06   -0.13188E+05   -0.89118E+05  1792   0.360E+07-0.862E+05
CGA:  44     0.268359594498E+06    0.81256E+05   -0.16713E+06  1792   0.193E+07 0.256E+06
CGA:  45     0.608879963360E+05   -0.20747E+06   -0.13267E+06  1792   0.178E+06 0.730E+05
CGA:  46     0.179693316997E+06    0.11881E+06   -0.69284E+04  1792   0.234E+07 0.594E+06
CGA:  47     0.233142719941E+05   -0.15638E+06   -0.17459E+06  1792   0.309E+05 0.854E+05
CGA:  48     0.176477880128E+05   -0.56665E+04   -0.70199E+04  1792   0.221E+05-0.310E+04
CGA:  49     0.536642123135E+05    0.36016E+05   -0.12352E+05  1792   0.621E+06-0.119E+06
CGA:  50     0.122032861050E+05   -0.41461E+05   -0.53426E+05  1792   0.994E+04-0.466E+03
CGA:  51     0.150118930434E+05    0.28086E+04   -0.17203E+04  1792   0.111E+06 0.164E+05
CGA:  52     0.103113385766E+05   -0.47006E+04   -0.10418E+05  1792   0.909E+04-0.106E+05
CGA:  53     0.114842994289E+05    0.11730E+04   -0.86078E+02  1792   0.299E+05 0.427E+03
CGA:  54     0.113518178944E+05   -0.13248E+03   -0.42921E+04  1792   0.614E+05-0.231E+05
CGA:  55     0.594414212632E+04   -0.54077E+04   -0.45286E+04  1792   0.239E+04-0.812E+04
CGA:  56     0.558177372468E+04   -0.36237E+03   -0.36231E+03  1792   0.210E+04-0.152E+03
CGA:  57     0.493061433293E+04   -0.65116E+03    0.18360E+05  1792   0.124E+04 0.196E+04
CGA:  58     0.472183941522E+04   -0.20877E+03   -0.21052E+03  1792   0.271E+04-0.143E+03
CGA:  59     0.268036982444E+04   -0.20415E+04   -0.14169E+04  1792   0.517E+04 0.190E+04
CGA:  60     0.236045045996E+04   -0.31992E+03   -0.21388E+03  1792   0.115E+04 0.233E+04
CGA:  61     0.226489982277E+04   -0.95551E+02   -0.81314E+02  1792   0.728E+03 0.225E+03
CGA:  62     0.215554285814E+04   -0.10936E+03   -0.10353E+03  1792   0.273E+04-0.120E+02
CGA:  63     0.200386696944E+04   -0.15168E+03   -0.25196E+03  1792   0.714E+04-0.357E+03
CGA:  64     0.140658042046E+04   -0.59729E+03   -0.66871E+03  1792   0.170E+04 0.236E+03
CGA:  65     0.115659845518E+04   -0.24998E+03   -0.23958E+03  1792   0.242E+04-0.150E+03
CGA:  66     0.923512256688E+03   -0.23309E+03   -0.23305E+03  1792   0.251E+04-0.107E+03
CGA:  67     0.807262352347E+03   -0.11625E+03   -0.12002E+03  1792   0.896E+03-0.972E+02
CGA:  68     0.758592027501E+03   -0.48670E+02   -0.49013E+02  1792   0.788E+03-0.308E+02
CGA:  69     0.668686161780E+03   -0.89906E+02   -0.90604E+02  1792   0.197E+04-0.160E+02
CGA:  70     0.514011750416E+04    0.44714E+04   -0.72073E+02  1792   0.709E+05-0.723E+04
CGA:  71     0.142960362812E+05    0.91559E+04   -0.46535E+04  1792   0.585E+06-0.692E+05
CGA:  72     0.205615894371E+05    0.62656E+04   -0.33231E+05  1792   0.210E+06-0.190E+06
CGA:  73     0.128293102242E+05   -0.77323E+04   -0.34249E+04  1792   0.173E+06 0.193E+06
CGA:  74     0.227049282682E+04   -0.10559E+05   -0.66006E+04  1792   0.194E+05 0.545E+05
CGA:  75     0.960754445759E+03   -0.13097E+04   -0.19370E+04  1792   0.746E+04-0.538E+03
CGA:  76     0.373125180779E+03   -0.58763E+03   -0.55564E+03  1792   0.291E+03 0.547E+03
CGA:  77     0.637334156776E+03    0.26421E+03   -0.41370E+02  1792   0.780E+04-0.627E+03
CGA:  78     0.921410702188E+03    0.28408E+03   -0.28562E+03  1792   0.144E+05-0.451E+04
CGA:  79     0.142220610728E+03   -0.77919E+03   -0.16903E+03  1792   0.163E+04 0.427E+04
CGA:  80     0.913978417018E+02   -0.50823E+02   -0.10965E+03  1792   0.127E+04-0.133E+04
CGA:  81     0.173842907241E+02   -0.74014E+02   -0.80928E+02  1792   0.210E+03-0.162E+03
CGA:  82    -0.164098518173E+02   -0.33794E+02   -0.31224E+02  1792   0.333E+03-0.662E+02
CGA:  83    -0.676288928862E+02   -0.51219E+02   -0.50586E+02  1792   0.275E+03 0.123E+02
CGA:  84     0.420296701879E+03    0.48793E+03   -0.54108E+01  1792   0.650E+04 0.604E+03
CGA:  85     0.853553783739E+03    0.43326E+03   -0.20901E+03  1792   0.242E+05-0.941E+04
CGA:  86    -0.768244718038E+02   -0.93038E+03   -0.37865E+03  1792   0.550E+03 0.310E+04
CGA:  87    -0.119555258950E+02    0.64869E+02   -0.45600E+02  1792   0.303E+04-0.922E+03
CGA:  88    -0.104291517369E+03   -0.92336E+02   -0.16186E+03  1792   0.641E+03-0.812E+03
CGA:  89    -0.130668892434E+03   -0.26377E+02   -0.27059E+02  1792   0.811E+02-0.164E+02
CGA:  90     0.368718080967E+03    0.49939E+03   -0.40520E+02  1792   0.449E+05-0.394E+03
CGA:  91     0.474621097057E+03    0.10590E+03   -0.74297E+03  1792   0.145E+05-0.735E+03
CGA:  92     0.412275135572E+03   -0.62346E+02   -0.30730E+03  1792   0.870E+04 0.316E+04
CGA:  93    -0.252496225812E+02   -0.43752E+03   -0.85809E+02  1792   0.246E+04-0.188E+03
CGA:  94    -0.766436604663E+02   -0.51394E+02   -0.58976E+02  1792   0.179E+04 0.772E+02
CGA:  95    -0.152600990227E+03   -0.75957E+02   -0.10243E+03  1792   0.760E+03 0.164E+03
CGA:  96    -0.183387073901E+03   -0.30786E+02   -0.35948E+02  1792   0.145E+03 0.972E+02
CGA:  97    -0.107686684968E+03    0.75700E+02   -0.52647E+02  1792   0.686E+04-0.931E+03
CGA:  98    -0.235433116945E+03   -0.12775E+03   -0.50866E+03  1792   0.954E+02-0.187E+02
CGA:  99    -0.253489584761E+03   -0.18056E+02   -0.19221E+02  1792   0.205E+03-0.761E+02
CGA: 100     0.438366458078E+04    0.46372E+04   -0.95854E+01  1792   0.107E+06 0.205E+03
CGA: 101     0.168311199615E+04   -0.27006E+04   -0.15798E+04  1792   0.303E+06-0.125E+06
CGA: 102     0.155142182276E+05    0.13831E+05   -0.14249E+05  1792   0.381E+06-0.137E+06
CGA: 103     0.194665336591E+04   -0.13568E+05   -0.36201E+04  1792   0.961E+05 0.254E+06
CGA: 104     0.821077530173E+03   -0.11256E+04   -0.50820E+04  1792   0.568E+05-0.873E+04
CGA: 105     0.109460799899E+05    0.10125E+05   -0.57116E+03  1792   0.310E+06 0.479E+05
CGA: 106     0.421451751175E+05    0.31199E+05   -0.13089E+05  1792   0.430E+07-0.850E+06
CGA: 107     0.280888277320E+05   -0.14056E+05   -0.18883E+06  1792   0.262E+06-0.651E+06
CGA: 108     0.165675887975E+05   -0.11521E+05   -0.86389E+04  1792   0.523E+05 0.607E+05
CGA: 109     0.149278347998E+05   -0.16398E+04   -0.71800E+03  1792   0.840E+05 0.103E+06
CGA: 110     0.121550033345E+05   -0.27728E+04   -0.10560E+04  1792   0.906E+05 0.116E+06
CGA: 111     0.794716912383E+04   -0.42078E+04   -0.12622E+04  1792   0.106E+06 0.158E+06
CGA: 112     0.743631053346E+04   -0.51086E+03   -0.56517E+04  1792   0.340E+06-0.495E+05
CGA: 113     0.730614951899E+04   -0.13016E+03   -0.31414E+04  1792   0.263E+06 0.573E+05
CGA: 114     0.201148059541E+04   -0.52947E+04   -0.10857E+05  1792   0.334E+05-0.915E+05
CGA: 115     0.930648312328E+03   -0.10808E+04   -0.12339E+04  1792   0.601E+04-0.556E+03
CGA: 116     0.480277517286E+03   -0.45037E+03   -0.34036E+03  1792   0.190E+04 0.297E+03
CGA: 117     0.125800067067E+02   -0.46770E+03   -0.52956E+03  1792   0.155E+04 0.138E+01
CGA: 118    -0.565798324463E+02   -0.69160E+02   -0.67864E+02  1792   0.408E+03 0.855E+02
CGA: 119    -0.156115043253E+03   -0.99535E+02   -0.85039E+02  1792   0.436E+03 0.139E+03
CGA: 120     0.295519987349E+03    0.45164E+03   -0.17887E+02  1792   0.450E+04-0.279E+03
CGA: 121     0.124415768457E+03   -0.17110E+03   -0.10724E+03  1792   0.577E+04-0.346E+04
CGA: 122    -0.174334131564E+03   -0.29875E+03   -0.24333E+03  1792   0.153E+03-0.337E+03
CGA: 123    -0.201204490694E+03   -0.26870E+02    0.45550E+02  1792   0.197E+03 0.111E+03
CGA: 124    -0.219671542247E+03   -0.18467E+02   -0.19687E+02  1792   0.217E+03-0.451E+02
CGA: 125     0.477396639332E+04    0.49936E+04   -0.30088E+01  1792   0.110E+06-0.394E+03
CGA: 126     0.385508312891E+03   -0.43885E+04   -0.25360E+04  1792   0.129E+05-0.377E+05
CGA: 127     0.210420182157E+05    0.20657E+05   -0.10225E+03  1792   0.246E+06 0.237E+05
CGA: 128     0.161866516321E+04   -0.19423E+05   -0.56236E+04  1792   0.144E+06-0.924E+05
CGA: 129    -0.103988190100E+03   -0.17227E+04   -0.18490E+04  1792   0.368E+04-0.109E+05
CGA: 130     0.195683537927E+05    0.19672E+05   -0.82088E+01  1792   0.783E+06 0.233E+05
CGA: 131     0.177690095235E+04   -0.17791E+05   -0.12675E+05  1792   0.607E+05-0.157E+06
CGA: 132     0.854391035503E+03   -0.92251E+03   -0.49477E+03  1792   0.183E+05 0.215E+05
CGA: 133     0.248757989162E+03   -0.60563E+03   -0.67773E+03  1792   0.942E+04-0.446E+04
CGA: 134    -0.110402057100E+03   -0.35916E+03   -0.36909E+03  1792   0.638E+03 0.592E+03
CGA: 135    -0.224092056933E+03   -0.11369E+03   -0.96031E+02  1792   0.188E+03 0.176E+03
CGA: 136    -0.265713099335E+03   -0.41621E+02   -0.34478E+02  1792   0.109E+03 0.806E+02
CGA: 137    -0.206449034682E+03    0.59264E+02   -0.51166E+02  1792   0.250E+04 0.119E+03
CGA: 138    -0.268741319245E+03   -0.62292E+02   -0.16946E+02  1792   0.230E+04-0.120E+04
CGA: 139    -0.320467611303E+03   -0.51726E+02   -0.58454E+02  1792   0.873E+02-0.141E+03
CGA: 140    -0.347623316337E+03   -0.27156E+02   -0.22355E+02  1792   0.420E+02 0.377E+02
CGA: 141    -0.347375761239E+03    0.24756E+00   -0.10905E+00  1792   0.688E+02 0.441E+02
CGA: 142    -0.353860349645E+03   -0.64846E+01   -0.64091E+01  1792   0.659E+02 0.182E+01
CGA: 143    -0.372646043095E+03   -0.18786E+02   -0.14168E+02  1792   0.489E+02 0.328E+02
CGA: 144    -0.322664755118E+03    0.49981E+02   -0.21066E+02  1792   0.558E+04-0.649E+03
CGA: 145    -0.398979419641E+03   -0.76315E+02   -0.27992E+03  1792   0.309E+02-0.623E+02
CGA: 146    -0.402869300889E+03   -0.38899E+01   -0.77966E+01  1792   0.221E+03-0.848E+02
CGA: 147    -0.409921943953E+03   -0.70526E+01   -0.13788E+02  1792   0.130E+02 0.140E+02
CGA: 148    -0.424679657472E+03   -0.14758E+02   -0.13799E+02  1792   0.119E+02 0.875E+01
CGA: 149    -0.430594378652E+03   -0.59147E+01   -0.53477E+01  1792   0.128E+02 0.196E+01
CGA: 150    -0.356863894707E+03    0.73730E+02   -0.11464E+02  1792   0.351E+04-0.380E+03
CGA: 151    -0.443082401643E+03   -0.86219E+02   -0.62683E+02  1792   0.341E+01-0.146E+02
CGA: 152    -0.444349832562E+03   -0.12674E+01   -0.14116E+01  1792   0.417E+01-0.765E+00
CGA: 153    -0.445040329154E+03   -0.69050E+00   -0.70261E+00  1792   0.278E+01 0.633E+00
CGA: 154    -0.446110590692E+03   -0.10703E+01   -0.99675E+00  1792   0.701E+00 0.623E+00
CGA: 155    -0.446589637195E+03   -0.47905E+00   -0.48218E+00  1792   0.501E+00-0.119E-01
CGA: 156    -0.446914415822E+03   -0.32478E+00   -0.33184E+00  1792   0.385E+00-0.178E-01
CGA: 157    -0.447066360158E+03   -0.15194E+00   -0.14976E+00  1792   0.107E+00 0.138E-01
CGA: 158    -0.447113720237E+03   -0.47360E-01   -0.47011E-01  1792   0.605E-01 0.215E-02
CGA: 159    -0.447150712241E+03   -0.36992E-01   -0.36982E-01  1792   0.387E-01-0.140E-03
CGA: 160    -0.447167981892E+03   -0.17270E-01   -0.17281E-01  1792   0.219E-01-0.954E-04
CGA: 161    -0.447180054233E+03   -0.12072E-01   -0.12112E-01  1792   0.141E-01-0.151E-03
CGA: 162    -0.447186102893E+03   -0.60487E-02   -0.60627E-02  1792   0.656E-02-0.849E-04
CGA: 163    -0.447189786551E+03   -0.36837E-02   -0.36935E-02  1792   0.590E-02-0.346E-04
CGA: 164    -0.447193071455E+03   -0.32849E-02   -0.32862E-02  1792   0.361E-02 0.131E-05
CGA: 165    -0.447194685864E+03   -0.16144E-02   -0.16142E-02  1792   0.211E-02 0.746E-05
CGA: 166    -0.447195895645E+03   -0.12098E-02   -0.12122E-02  1792   0.167E-02-0.108E-04
CGA: 167    -0.447196669898E+03   -0.77425E-03   -0.77540E-03  1792   0.957E-03-0.116E-04
CGA: 168    -0.447197163297E+03   -0.49340E-03   -0.49430E-03  1792   0.662E-03-0.528E-05
CGA: 169    -0.447197466795E+03   -0.30350E-03   -0.30367E-03  1792   0.351E-03-0.147E-05
CGA: 170    -0.447197656793E+03   -0.19000E-03   -0.19058E-03  1792   0.291E-03-0.301E-05
CGA: 171    -0.447197810790E+03   -0.15400E-03   -0.15417E-03  1792   0.209E-03-0.874E-06
CGA: 172    -0.447197919459E+03   -0.10867E-03   -0.10843E-03  1792   0.163E-03 0.197E-05
CGA: 173    -0.447198001259E+03   -0.81801E-04   -0.81657E-04  1792   0.117E-03 0.170E-05
CGA: 174    -0.447198063370E+03   -0.62111E-04   -0.62075E-04  1792   0.924E-04 0.432E-06
CGA: 175    -0.447198109292E+03   -0.45922E-04   -0.45891E-04  1792   0.705E-04 0.442E-06
CGA: 176    -0.447198148045E+03   -0.38753E-04   -0.38670E-04  1792   0.547E-04 0.620E-06
CGA: 177    -0.447198173774E+03   -0.25729E-04   -0.25733E-04  1792   0.370E-04-0.519E-07
CGA: 178    -0.447198193562E+03   -0.19788E-04   -0.19839E-04  1792   0.269E-04-0.427E-06
CGA: 179    -0.447198205282E+03   -0.11721E-04   -0.11721E-04  1792   0.167E-04-0.691E-08
CGA: 180    -0.447198213193E+03   -0.79102E-05   -0.79046E-05  1792   0.103E-04 0.159E-06
SDA: 181    -0.447198217827E+03   -0.46346E-05   -0.46366E-05  1792   0.651E-05-0.119E-06
CGA: 182    -0.447198220690E+03   -0.28628E-05   -0.28647E-05  1792   0.302E-05-0.200E-06
CGA: 183    -0.447198223225E+03   -0.25350E-05   -0.26616E-05  1792   0.201E-05-0.265E-06
CGA: 184    -0.447198224419E+03   -0.11946E-05   -0.12187E-05  1792   0.109E-05-0.112E-06
CGA: 185    -0.447198225323E+03   -0.90398E-06   -0.10232E-05  1792   0.113E-05-0.224E-06
CGA: 186    -0.447198225955E+03   -0.63173E-06   -0.62971E-06  1792   0.573E-06 0.143E-07
CGA: 187    -0.447198226409E+03   -0.45368E-06   -0.46675E-06  1792   0.395E-06-0.404E-07
CGA: 188    -0.447198226698E+03   -0.28898E-06   -0.31213E-06  1792   0.370E-06-0.676E-07
CGA: 189    -0.447198226911E+03   -0.21338E-06   -0.21074E-06  1792   0.195E-06 0.221E-07
CGA: 190    -0.447198227054E+03   -0.14311E-06   -0.14302E-06  1792   0.118E-06 0.605E-08
CGA: 191    -0.447198227133E+03   -0.78275E-07   -0.79084E-07  1792   0.754E-07-0.100E-08
CGA: 192    -0.447198227182E+03   -0.49084E-07   -0.48456E-07  1792   0.462E-07 0.148E-07
CGA: 193    -0.447198227217E+03   -0.35718E-07   -0.35474E-07  1792   0.339E-07 0.133E-07
CGA: 194    -0.447198227249E+03   -0.31523E-07   -0.31512E-07  1792   0.241E-07 0.496E-08
CGA: 195    -0.447198227273E+03   -0.24287E-07   -0.25732E-07  1792   0.256E-07-0.982E-09
CGA: 196    -0.447198227291E+03   -0.17470E-07   -0.18995E-07  1792   0.221E-07-0.328E-08
CGA: 197    -0.447198227299E+03   -0.78981E-08   -0.25668E-07  1792   0.554E-07-0.222E-07
CGA: 198    -0.447198227317E+03   -0.18648E-07   -0.20042E-07  1792   0.102E-07 0.366E-08
CGA: 199    -0.447198227323E+03   -0.58571E-08   -0.65402E-08  1792   0.516E-08 0.170E-08
CGA: 200    -0.447198227319E+03    0.39581E-08   -0.12610E-07  1792   0.415E-07-0.978E-08
CGA: 201    -0.447198227330E+03   -0.10925E-07   -0.12941E-07  1792   0.492E-08 0.428E-08
CGA: 202    -0.447198227333E+03   -0.30595E-08   -0.36526E-08  1792   0.298E-08-0.451E-09
   1 F= -.44719823E+03 E0= -.44719823E+03  d E =-.180387E-11
       N       E                     dE             d eps       ncg     rms          ort
SDA:   1    -0.447036937795E+03    0.16129E+00    0.00000E+00  1792   0.351E+00 0.000E+00
CGA:   2    -0.447177117008E+03   -0.14018E+00   -0.14024E+00  1792   0.608E-01 0.599E-05
CGA:   3    -0.447193087499E+03   -0.15970E-01   -0.15967E-01  1792   0.128E-01-0.737E-05
CGA:   4    -0.447196506986E+03   -0.34195E-02   -0.34177E-02  1792   0.293E-02-0.357E-05
CGA:   5    -0.447197541296E+03   -0.10343E-02   -0.10344E-02  1792   0.108E-02-0.142E-06
CGA:   6    -0.447197983132E+03   -0.44184E-03   -0.44184E-03  1792   0.459E-03 0.119E-06
CGA:   7    -0.447198126108E+03   -0.14298E-03   -0.14291E-03  1792   0.190E-03 0.713E-07
CGA:   8    -0.447198163741E+03   -0.37633E-04   -0.37626E-04  1792   0.535E-04 0.375E-07
CGA:   9    -0.447198176919E+03   -0.13178E-04   -0.13179E-04  1792   0.114E-04 0.460E-08
CGA:  10    -0.447198179703E+03   -0.27837E-05   -0.27845E-05  1792   0.413E-05 0.143E-08
CGA:  11    -0.447198180751E+03   -0.10480E-05   -0.10489E-05  1792   0.133E-05 0.251E-08
CGA:  12    -0.447198181159E+03   -0.40845E-06   -0.40885E-06  1792   0.694E-06 0.501E-09
CGA:  13    -0.447198181336E+03   -0.17653E-06   -0.17645E-06  1792   0.276E-06-0.127E-08
CGA:  14    -0.447198181409E+03   -0.73760E-07   -0.73837E-07  1792   0.107E-06-0.900E-09
CGA:  15    -0.447198181434E+03   -0.25160E-07   -0.25161E-07  1792   0.334E-07-0.106E-08
CGA:  16    -0.447198181443E+03   -0.83855E-08   -0.84707E-08  1792   0.123E-07-0.114E-08
   2 F= -.44719818E+03 E0= -.44719818E+03  d E =-.854569E-15
       N       E                     dE             d eps       ncg     rms          ort
SDA:   1    -0.446552692941E+03    0.64549E+00    0.00000E+00  1792   0.141E+01 0.000E+00
CGA:   2    -0.447115145301E+03   -0.56245E+00   -0.56264E+00  1792   0.239E+00 0.500E-03
CGA:   3    -0.447177947470E+03   -0.62802E-01   -0.62848E-01  1792   0.509E-01-0.230E-04
CGA:   4    -0.447191621585E+03   -0.13674E-01   -0.13673E-01  1792   0.113E-01 0.360E-06
CGA:   5    -0.447195678289E+03   -0.40567E-02   -0.40567E-02  1792   0.417E-02 0.436E-06
CGA:   6    -0.447197426059E+03   -0.17478E-02   -0.17478E-02  1792   0.171E-02 0.526E-07
CGA:   7    -0.447198006530E+03   -0.58047E-03   -0.58047E-03  1792   0.500E-03 0.137E-06
CGA:   8    -0.447198130179E+03   -0.12365E-03   -0.12366E-03  1792   0.157E-03 0.750E-07
CGA:   9    -0.447198165577E+03   -0.35399E-04   -0.35405E-04  1792   0.319E-04 0.303E-07
CGA:  10    -0.447198175158E+03   -0.95801E-05   -0.95822E-05  1792   0.110E-04 0.135E-07
CGA:  11    -0.447198178051E+03   -0.28938E-05   -0.28963E-05  1792   0.420E-05 0.138E-07
CGA:  12    -0.447198179376E+03   -0.13245E-05   -0.13250E-05  1792   0.171E-05 0.808E-09
CGA:  13    -0.447198179862E+03   -0.48619E-06   -0.48600E-06  1792   0.736E-06-0.578E-08
CGA:  14    -0.447198180063E+03   -0.20143E-06   -0.20097E-06  1792   0.212E-06-0.811E-08
CGA:  15    -0.447198180119E+03   -0.55355E-07   -0.55411E-07  1792   0.696E-07-0.244E-08
CGA:  16    -0.447198180135E+03   -0.16491E-07   -0.16560E-07  1792   0.225E-07-0.232E-08
CGA:  17    -0.447198180141E+03   -0.55479E-08   -0.57457E-08  1792   0.937E-08-0.207E-08
   3 F= -.44719818E+03 E0= -.44719818E+03  d E =-.125110E-15
       N       E                     dE             d eps       ncg     rms          ort
SDA:   1    -0.446875262495E+03    0.32292E+00    0.00000E+00  1792   0.702E+00 0.000E+00
CGA:   2    -0.447156314025E+03   -0.28105E+00   -0.28105E+00  1792   0.120E+00 0.808E-04
CGA:   3    -0.447187764379E+03   -0.31450E-01   -0.31456E-01  1792   0.255E-01 0.118E-04
CGA:   4    -0.447194613303E+03   -0.68489E-02   -0.68490E-02  1792   0.557E-02 0.101E-05
CGA:   5    -0.447196655169E+03   -0.20419E-02   -0.20419E-02  1792   0.208E-02-0.356E-06
CGA:   6    -0.447197509706E+03   -0.85454E-03   -0.85454E-03  1792   0.877E-03-0.439E-07
CGA:   7    -0.447197784737E+03   -0.27503E-03   -0.27503E-03  1792   0.343E-03 0.869E-09
CGA:   8    -0.447197851832E+03   -0.67096E-04   -0.67099E-04  1792   0.979E-04 0.310E-07
CGA:   9    -0.447197875938E+03   -0.24105E-04   -0.24103E-04  1792   0.226E-04-0.304E-07
CGA:  10    -0.447197881284E+03   -0.53463E-05   -0.53467E-05  1792   0.809E-05-0.149E-08
CGA:  11    -0.447197883387E+03   -0.21032E-05   -0.21041E-05  1792   0.266E-05 0.541E-08
CGA:  12    -0.447197884161E+03   -0.77384E-06   -0.77457E-06  1792   0.133E-05 0.210E-08
CGA:  13    -0.447197884524E+03   -0.36267E-06   -0.36280E-06  1792   0.505E-06-0.525E-08
CGA:  14    -0.447197884658E+03   -0.13462E-06   -0.13501E-06  1792   0.207E-06-0.272E-08
CGA:  15    -0.447197884706E+03   -0.47105E-07   -0.47391E-07  1792   0.636E-07-0.132E-08
CGA:  16    -0.447197884721E+03   -0.15563E-07   -0.15857E-07  1792   0.212E-07-0.203E-08
CGA:  17    -0.447197884726E+03   -0.49840E-08   -0.53849E-08  1792   0.804E-08-0.185E-08
   4 F= -.44719788E+03 E0= -.44719788E+03  d E =-.749968E-16
       N       E                     dE             d eps       ncg     rms          ort
SDA:   1    -0.446553156132E+03    0.64473E+00    0.00000E+00  1792   0.141E+01 0.000E+00
CGA:   2    -0.447114510507E+03   -0.56135E+00   -0.56114E+00  1792   0.243E+00 0.152E-02
CGA:   3    -0.447177808283E+03   -0.63298E-01   -0.63305E-01  1792   0.522E-01 0.239E-04
CGA:   4    -0.447191717224E+03   -0.13909E-01   -0.13909E-01  1792   0.114E-01-0.862E-06
CGA:   5    -0.447195801563E+03   -0.40843E-02   -0.40843E-02  1792   0.422E-02 0.518E-06
CGA:   6    -0.447197528140E+03   -0.17266E-02   -0.17265E-02  1792   0.176E-02 0.186E-06
CGA:   7    -0.447198109527E+03   -0.58139E-03   -0.58139E-03  1792   0.655E-03 0.125E-06
CGA:   8    -0.447198246338E+03   -0.13681E-03   -0.13685E-03  1792   0.187E-03 0.370E-06
CGA:   9    -0.447198289398E+03   -0.43060E-04   -0.43068E-04  1792   0.403E-04 0.937E-07
CGA:  10    -0.447198299367E+03   -0.99694E-05   -0.99710E-05  1792   0.140E-04 0.183E-07
CGA:  11    -0.447198303034E+03   -0.36672E-05   -0.36689E-05  1792   0.500E-05 0.222E-07
CGA:  12    -0.447198304585E+03   -0.15503E-05   -0.15509E-05  1792   0.224E-05 0.105E-07
CGA:  13    -0.447198305208E+03   -0.62382E-06   -0.62411E-06  1792   0.878E-06-0.978E-08
CGA:  14    -0.447198305458E+03   -0.24936E-06   -0.24968E-06  1792   0.328E-06-0.110E-07
CGA:  15    -0.447198305532E+03   -0.74571E-07   -0.74767E-07  1792   0.101E-06-0.389E-08
CGA:  16    -0.447198305557E+03   -0.24600E-07   -0.24930E-07  1792   0.324E-07-0.455E-08
CGA:  17    -0.447198305564E+03   -0.72614E-08   -0.76644E-08  1792   0.123E-07-0.336E-08
   5 F= -.44719831E+03 E0= -.44719831E+03  d E =-.544312E-15
       N       E                     dE             d eps       ncg     rms          ort
SDA:   1    -0.446853413251E+03    0.34489E+00    0.00000E+00  1792   0.730E+00 0.000E+00
CGA:   2    -0.447136784683E+03   -0.28337E+00   -0.28386E+00  1792   0.131E+00-0.354E-02
CGA:   3    -0.447172563471E+03   -0.35779E-01   -0.35782E-01  1792   0.272E-01 0.697E-04
CGA:   4    -0.447179888166E+03   -0.73247E-02   -0.73243E-02  1792   0.584E-02-0.840E-05
CGA:   5    -0.447181860831E+03   -0.19727E-02   -0.19727E-02  1792   0.192E-02 0.266E-06
CGA:   6    -0.447182549209E+03   -0.68838E-03   -0.68843E-03  1792   0.913E-03-0.511E-06
CGA:   7    -0.447182794482E+03   -0.24527E-03   -0.24525E-03  1792   0.469E-03-0.377E-06
CGA:   8    -0.447182903273E+03   -0.10879E-03   -0.10873E-03  1792   0.137E-03-0.816E-06
CGA:   9    -0.447182936086E+03   -0.32813E-04   -0.32785E-04  1792   0.495E-04-0.494E-06
CGA:  10    -0.447182946841E+03   -0.10755E-04   -0.10736E-04  1792   0.110E-04-0.251E-06
CGA:  11    -0.447182949782E+03   -0.29410E-05   -0.29385E-05  1792   0.416E-05-0.134E-06
CGA:  12    -0.447182950809E+03   -0.10267E-05   -0.10250E-05  1792   0.155E-05-0.552E-07
CGA:  13    -0.447182951222E+03   -0.41332E-06   -0.41377E-06  1792   0.711E-06-0.852E-08
CGA:  14    -0.447182951388E+03   -0.16537E-06   -0.16654E-06  1792   0.281E-06 0.108E-07
CGA:  15    -0.447182951453E+03   -0.65153E-07   -0.66265E-07  1792   0.105E-06 0.128E-07
CGA:  16    -0.447182951476E+03   -0.23239E-07   -0.24198E-07  1792   0.335E-07 0.795E-08
CGA:  17    -0.447182951483E+03   -0.71159E-08   -0.78883E-08  1792   0.113E-07 0.498E-08
   6 F= -.44718295E+03 E0= -.44718295E+03  d E =-.194503E-11
       N       E                     dE             d eps       ncg     rms          ort
SDA:   1    -0.446520551823E+03    0.66240E+00    0.00000E+00  1792   0.146E+01 0.000E+00
CGA:   2    -0.447078522963E+03   -0.55797E+00   -0.55597E+00  1792   0.306E+00 0.137E-01
CGA:   3    -0.447163754387E+03   -0.85231E-01   -0.85231E-01  1792   0.605E-01 0.890E-04
CGA:   4    -0.447179248299E+03   -0.15494E-01   -0.15494E-01  1792   0.995E-02 0.112E-04
CGA:   5    -0.447182704565E+03   -0.34563E-02   -0.34561E-02  1792   0.320E-02 0.160E-05
CGA:   6    -0.447183854641E+03   -0.11501E-02   -0.11499E-02  1792   0.147E-02 0.232E-05
CGA:   7    -0.447184288867E+03   -0.43423E-03   -0.43419E-03  1792   0.687E-03 0.299E-05
CGA:   8    -0.447184439366E+03   -0.15050E-03   -0.15059E-03  1792   0.195E-03 0.133E-05
CGA:   9    -0.447184489539E+03   -0.50174E-04   -0.50195E-04  1792   0.485E-04 0.847E-06
CGA:  10    -0.447184500119E+03   -0.10579E-04   -0.10604E-04  1792   0.138E-04 0.391E-06
CGA:  11    -0.447184503764E+03   -0.36450E-05   -0.36471E-05  1792   0.405E-05 0.114E-06
CGA:  12    -0.447184504788E+03   -0.10241E-05   -0.10251E-05  1792   0.165E-05 0.187E-07
CGA:  13    -0.447184505219E+03   -0.43133E-06   -0.43182E-06  1792   0.603E-06-0.794E-08
CGA:  14    -0.447184505373E+03   -0.15417E-06   -0.15452E-06  1792   0.208E-06-0.143E-07
CGA:  15    -0.447184505427E+03   -0.53376E-07   -0.53987E-07  1792   0.847E-07-0.131E-07
CGA:  16    -0.447184505447E+03   -0.20365E-07   -0.20806E-07  1792   0.406E-07-0.104E-07
CGA:  17    -0.447184505455E+03   -0.80145E-08   -0.85325E-08  1792   0.179E-07-0.427E-08
   7 F= -.44718451E+03 E0= -.44718451E+03  d E =-.148725E-15
       N       E                     dE             d eps       ncg     rms          ort
SDA:   1    -0.446869367146E+03    0.31514E+00    0.00000E+00  1792   0.730E+00 0.000E+00
CGA:   2    -0.447152063748E+03   -0.28270E+00   -0.28299E+00  1792   0.130E+00-0.180E-02
CGA:   3    -0.447187830208E+03   -0.35766E-01   -0.35766E-01  1792   0.270E-01 0.413E-04
CGA:   4    -0.447195099022E+03   -0.72688E-02   -0.72687E-02  1792   0.582E-02-0.102E-04
CGA:   5    -0.447197071851E+03   -0.19728E-02   -0.19728E-02  1792   0.187E-02 0.147E-05
CGA:   6    -0.447197783507E+03   -0.71166E-03   -0.71160E-03  1792   0.791E-03 0.603E-06
CGA:   7    -0.447198039576E+03   -0.25607E-03   -0.25610E-03  1792   0.384E-03-0.745E-06
CGA:   8    -0.447198114981E+03   -0.75405E-04   -0.75360E-04  1792   0.130E-03-0.498E-06
CGA:   9    -0.447198147820E+03   -0.32839E-04   -0.32827E-04  1792   0.338E-04-0.477E-06
CGA:  10    -0.447198155225E+03   -0.74047E-05   -0.73914E-05  1792   0.109E-04-0.229E-06
CGA:  11    -0.447198158018E+03   -0.27934E-05   -0.27909E-05  1792   0.344E-05-0.160E-06
CGA:  12    -0.447198158869E+03   -0.85119E-06   -0.85102E-06  1792   0.153E-05-0.326E-07
CGA:  13    -0.447198159234E+03   -0.36420E-06   -0.36468E-06  1792   0.611E-06-0.434E-08
CGA:  14    -0.447198159385E+03   -0.15181E-06   -0.15253E-06  1792   0.257E-06 0.813E-08
CGA:  15    -0.447198159444E+03   -0.58961E-07   -0.60061E-07  1792   0.934E-07 0.131E-07
CGA:  16    -0.447198159464E+03   -0.19267E-07   -0.20281E-07  1792   0.329E-07 0.919E-08
CGA:  17    -0.447198159470E+03   -0.59445E-08   -0.68292E-08  1792   0.103E-07 0.610E-08
   8 F= -.44719816E+03 E0= -.44719816E+03  d E =-.184653E-13
       N       E                     dE             d eps       ncg     rms          ort
SDA:   1    -0.446552657865E+03    0.64550E+00    0.00000E+00  1792   0.141E+01 0.000E+00
CGA:   2    -0.447114998136E+03   -0.56234E+00   -0.56218E+00  1792   0.239E+00 0.933E-03
CGA:   3    -0.447177935833E+03   -0.62938E-01   -0.62938E-01  1792   0.505E-01 0.885E-04
CGA:   4    -0.447191624389E+03   -0.13689E-01   -0.13689E-01  1792   0.112E-01 0.287E-05
CGA:   5    -0.447195678124E+03   -0.40537E-02   -0.40538E-02  1792   0.416E-02-0.380E-06
CGA:   6    -0.447197408555E+03   -0.17304E-02   -0.17305E-02  1792   0.169E-02-0.253E-06
CGA:   7    -0.447197989498E+03   -0.58094E-03   -0.58092E-03  1792   0.463E-03 0.306E-06
CGA:   8    -0.447198111423E+03   -0.12192E-03   -0.12193E-03  1792   0.144E-03 0.163E-06
CGA:   9    -0.447198144012E+03   -0.32589E-04   -0.32590E-04  1792   0.315E-04 0.134E-07
CGA:  10    -0.447198153518E+03   -0.95059E-05   -0.95063E-05  1792   0.104E-04 0.144E-07
CGA:  11    -0.447198156426E+03   -0.29082E-05   -0.29087E-05  1792   0.400E-05 0.248E-07
CGA:  12    -0.447198157700E+03   -0.12736E-05   -0.12745E-05  1792   0.162E-05-0.715E-08
CGA:  13    -0.447198158144E+03   -0.44484E-06   -0.44544E-06  1792   0.728E-06-0.290E-08
CGA:  14    -0.447198158335E+03   -0.19040E-06   -0.19078E-06  1792   0.218E-06-0.112E-07
CGA:  15    -0.447198158390E+03   -0.55355E-07   -0.55825E-07  1792   0.816E-07-0.455E-08
CGA:  16    -0.447198158409E+03   -0.18867E-07   -0.19258E-07  1792   0.244E-07-0.326E-08
CGA:  17    -0.447198158415E+03   -0.58862E-08   -0.65601E-08  1792   0.118E-07-0.327E-08
   9 F= -.44719816E+03 E0= -.44719816E+03  d E =-.490646E-12
       N       E                     dE             d eps       ncg     rms          ort
SDA:   1    -0.446875505220E+03    0.32265E+00    0.00000E+00  1792   0.701E+00 0.000E+00
CGA:   2    -0.447156342986E+03   -0.28084E+00   -0.28065E+00  1792   0.121E+00 0.112E-02
CGA:   3    -0.447187941806E+03   -0.31599E-01   -0.31599E-01  1792   0.257E-01 0.356E-05
CGA:   4    -0.447194788992E+03   -0.68472E-02   -0.68472E-02  1792   0.548E-02 0.119E-05
CGA:   5    -0.447196787527E+03   -0.19985E-02   -0.19985E-02  1792   0.209E-02 0.535E-06
CGA:   6    -0.447197639923E+03   -0.85240E-03   -0.85235E-03  1792   0.914E-03 0.305E-06
CGA:   7    -0.447197918571E+03   -0.27865E-03   -0.27864E-03  1792   0.378E-03 0.476E-06
CGA:   8    -0.447197990954E+03   -0.72383E-04   -0.72399E-04  1792   0.987E-04 0.155E-06
CGA:   9    -0.447198014808E+03   -0.23854E-04   -0.23860E-04  1792   0.227E-04 0.116E-06
CGA:  10    -0.447198020046E+03   -0.52379E-05   -0.52413E-05  1792   0.753E-05 0.552E-07
CGA:  11    -0.447198022109E+03   -0.20630E-05   -0.20638E-05  1792   0.267E-05 0.178E-07
CGA:  12    -0.447198022895E+03   -0.78663E-06   -0.78729E-06  1792   0.141E-05 0.561E-08
CGA:  13    -0.447198023250E+03   -0.35445E-06   -0.35490E-06  1792   0.575E-06-0.312E-08
CGA:  14    -0.447198023394E+03   -0.14413E-06   -0.14461E-06  1792   0.230E-06-0.322E-08
CGA:  15    -0.447198023448E+03   -0.53584E-07   -0.53929E-07  1792   0.758E-07-0.478E-08
CGA:  16    -0.447198023465E+03   -0.17546E-07   -0.17868E-07  1792   0.305E-07-0.562E-08
CGA:  17    -0.447198023472E+03   -0.64683E-08   -0.68193E-08  1792   0.120E-07-0.294E-08
  10 F= -.44719802E+03 E0= -.44719802E+03  d E =-.522395E-11
       N       E                     dE             d eps       ncg     rms          ort
SDA:   1    -0.446549688876E+03    0.64833E+00    0.00000E+00  1792   0.141E+01 0.000E+00
CGA:   2    -0.447114047881E+03   -0.56436E+00   -0.56482E+00  1792   0.237E+00-0.271E-02
CGA:   3    -0.447176193242E+03   -0.62145E-01   -0.62150E-01  1792   0.527E-01 0.149E-03
CGA:   4    -0.447190224859E+03   -0.14032E-01   -0.14032E-01  1792   0.118E-01 0.420E-05
CGA:   5    -0.447194435854E+03   -0.42110E-02   -0.42113E-02  1792   0.430E-02-0.288E-05
CGA:   6    -0.447196156958E+03   -0.17211E-02   -0.17214E-02  1792   0.178E-02-0.183E-05
CGA:   7    -0.447196746294E+03   -0.58934E-03   -0.58936E-03  1792   0.668E-03-0.483E-06
CGA:   8    -0.447196886761E+03   -0.14047E-03   -0.14045E-03  1792   0.197E-03-0.132E-06
CGA:   9    -0.447196935185E+03   -0.48425E-04   -0.48420E-04  1792   0.436E-04-0.136E-06
CGA:  10    -0.447196946397E+03   -0.11211E-04   -0.11209E-04  1792   0.155E-04-0.963E-07
CGA:  11    -0.447196950378E+03   -0.39813E-05   -0.39815E-05  1792   0.538E-05-0.126E-07
CGA:  12    -0.447196952025E+03   -0.16469E-05   -0.16470E-05  1792   0.246E-05 0.230E-07
CGA:  13    -0.447196952712E+03   -0.68723E-06   -0.68786E-06  1792   0.950E-06-0.422E-08
CGA:  14    -0.447196952973E+03   -0.26087E-06   -0.26156E-06  1792   0.319E-06 0.634E-09
CGA:  15    -0.447196953048E+03   -0.75572E-07   -0.76040E-07  1792   0.104E-06-0.181E-08
CGA:  16    -0.447196953072E+03   -0.23912E-07   -0.24431E-07  1792   0.357E-07-0.146E-08
CGA:  17    -0.447196953080E+03   -0.77489E-08   -0.82676E-08  1792   0.148E-07-0.191E-08
  11 F= -.44719695E+03 E0= -.44719695E+03  d E =-.283504E-15
       N       E                     dE             d eps       ncg     rms          ort
SDA:   1    -0.446855842948E+03    0.34111E+00    0.00000E+00  1792   0.722E+00 0.000E+00
CGA:   2    -0.447138760783E+03   -0.28292E+00   -0.28340E+00  1792   0.123E+00-0.294E-02
CGA:   3    -0.447172709212E+03   -0.33948E-01   -0.33949E-01  1792   0.254E-01 0.592E-04
CGA:   4    -0.447179642054E+03   -0.69328E-02   -0.69327E-02  1792   0.586E-02-0.952E-05
CGA:   5    -0.447181640271E+03   -0.19982E-02   -0.19983E-02  1792   0.199E-02 0.199E-06
CGA:   6    -0.447182394426E+03   -0.75415E-03   -0.75425E-03  1792   0.896E-03-0.708E-06
CGA:   7    -0.447182665506E+03   -0.27108E-03   -0.27109E-03  1792   0.444E-03-0.567E-06
CGA:   8    -0.447182755088E+03   -0.89582E-04   -0.89522E-04  1792   0.126E-03-0.664E-06
CGA:   9    -0.447182785413E+03   -0.30325E-04   -0.30313E-04  1792   0.370E-04-0.273E-06
CGA:  10    -0.447182792881E+03   -0.74683E-05   -0.74624E-05  1792   0.101E-04-0.790E-07
CGA:  11    -0.447182795640E+03   -0.27589E-05   -0.27589E-05  1792   0.392E-05-0.120E-06
CGA:  12    -0.447182796583E+03   -0.94315E-06   -0.94237E-06  1792   0.180E-05-0.378E-07
CGA:  13    -0.447182797018E+03   -0.43504E-06   -0.43590E-06  1792   0.820E-06 0.723E-08
CGA:  14    -0.447182797199E+03   -0.18081E-06   -0.18202E-06  1792   0.310E-06 0.131E-07
CGA:  15    -0.447182797274E+03   -0.74677E-07   -0.75518E-07  1792   0.113E-06 0.769E-08
CGA:  16    -0.447182797296E+03   -0.22581E-07   -0.23250E-07  1792   0.468E-07 0.413E-08
CGA:  17    -0.447182797304E+03   -0.75888E-08   -0.83839E-08  1792   0.156E-07 0.409E-08
  12 F= -.44718280E+03 E0= -.44718280E+03  d E =-.167970E-14
       N       E                     dE             d eps       ncg     rms          ort
SDA:   1    -0.446522878122E+03    0.65992E+00    0.00000E+00  1792   0.146E+01 0.000E+00
CGA:   2    -0.447081122898E+03   -0.55824E+00   -0.55599E+00  1792   0.302E+00 0.143E-01
CGA:   3    -0.447165283060E+03   -0.84160E-01   -0.84158E-01  1792   0.607E-01 0.108E-03
CGA:   4    -0.447180754969E+03   -0.15472E-01   -0.15472E-01  1792   0.102E-01 0.787E-05
CGA:   5    -0.447184263157E+03   -0.35082E-02   -0.35081E-02  1792   0.324E-02 0.147E-05
CGA:   6    -0.447185440824E+03   -0.11777E-02   -0.11774E-02  1792   0.157E-02 0.275E-05
CGA:   7    -0.447185871498E+03   -0.43067E-03   -0.43067E-03  1792   0.796E-03 0.323E-05
CGA:   8    -0.447186041625E+03   -0.17013E-03   -0.17023E-03  1792   0.213E-03 0.155E-05
CGA:   9    -0.447186096462E+03   -0.54837E-04   -0.54849E-04  1792   0.586E-04 0.800E-06
CGA:  10    -0.447186108638E+03   -0.12176E-04   -0.12206E-04  1792   0.148E-04 0.460E-06
CGA:  11    -0.447186112510E+03   -0.38721E-05   -0.38739E-05  1792   0.401E-05 0.171E-06
CGA:  12    -0.447186113627E+03   -0.11163E-05   -0.11169E-05  1792   0.161E-05 0.355E-08
CGA:  13    -0.447186114045E+03   -0.41883E-06   -0.41936E-06  1792   0.672E-06-0.100E-07
CGA:  14    -0.447186114207E+03   -0.16177E-06   -0.16222E-06  1792   0.241E-06-0.665E-08
CGA:  15    -0.447186114265E+03   -0.57971E-07   -0.58331E-07  1792   0.906E-07-0.124E-07
CGA:  16    -0.447186114289E+03   -0.23450E-07   -0.24582E-07  1792   0.455E-07-0.168E-07
CGA:  17    -0.447186114298E+03   -0.91313E-08   -0.97648E-08  1792   0.189E-07-0.728E-08
  13 F= -.44718611E+03 E0= -.44718611E+03  d E =-.570345E-14
       N       E                     dE             d eps       ncg     rms          ort
SDA:   1    -0.446860860368E+03    0.32525E+00    0.00000E+00  1792   0.733E+00 0.000E+00
CGA:   2    -0.447145511443E+03   -0.28465E+00   -0.28509E+00  1792   0.130E+00-0.274E-02
CGA:   3    -0.447182874483E+03   -0.37363E-01   -0.37362E-01  1792   0.244E-01 0.496E-04
CGA:   4    -0.447189506202E+03   -0.66317E-02   -0.66317E-02  1792   0.570E-02-0.504E-05
CGA:   5    -0.447191376202E+03   -0.18700E-02   -0.18698E-02  1792   0.187E-02 0.388E-05
CGA:   6    -0.447192059246E+03   -0.68304E-03   -0.68292E-03  1792   0.861E-03 0.149E-05
CGA:   7    -0.447192319286E+03   -0.26004E-03   -0.26005E-03  1792   0.368E-03-0.225E-06
CGA:   8    -0.447192410369E+03   -0.91083E-04   -0.91062E-04  1792   0.106E-03-0.623E-06
CGA:   9    -0.447192438063E+03   -0.27693E-04   -0.27687E-04  1792   0.269E-04-0.404E-06
CGA:  10    -0.447192444654E+03   -0.65912E-05   -0.65837E-05  1792   0.856E-05-0.254E-06
CGA:  11    -0.447192446948E+03   -0.22939E-05   -0.22935E-05  1792   0.268E-05-0.191E-06
CGA:  12    -0.447192447690E+03   -0.74232E-06   -0.74330E-06  1792   0.111E-05-0.373E-07
CGA:  13    -0.447192447970E+03   -0.28018E-06   -0.28098E-06  1792   0.409E-06 0.138E-07
CGA:  14    -0.447192448081E+03   -0.11066E-06   -0.11136E-06  1792   0.140E-06 0.197E-07
CGA:  15    -0.447192448115E+03   -0.34044E-07   -0.35066E-07  1792   0.531E-07 0.120E-07
CGA:  16    -0.447192448126E+03   -0.11471E-07   -0.12361E-07  1792   0.181E-07 0.705E-08
CGA:  17    -0.447192448130E+03   -0.37362E-08   -0.44676E-08  1792   0.603E-08 0.415E-08
  14 F= -.44719245E+03 E0= -.44719245E+03  d E =-.931241E-14
       N       E                     dE             d eps       ncg     rms          ort
SDA:   1    -0.446536934217E+03    0.65551E+00    0.00000E+00  1792   0.140E+01 0.000E+00
CGA:   2    -0.447103899721E+03   -0.56697E+00   -0.56539E+00  1792   0.244E+00 0.973E-02
CGA:   3    -0.447175275170E+03   -0.71375E-01   -0.71376E-01  1792   0.399E-01-0.241E-04
CGA:   4    -0.447186910513E+03   -0.11635E-01   -0.11636E-01  1792   0.917E-02-0.303E-04
CGA:   5    -0.447190195120E+03   -0.32846E-02   -0.32850E-02  1792   0.348E-02-0.417E-05
CGA:   6    -0.447191610185E+03   -0.14151E-02   -0.14151E-02  1792   0.158E-02-0.544E-06
CGA:   7    -0.447192085660E+03   -0.47547E-03   -0.47547E-03  1792   0.529E-03 0.596E-07
CGA:   8    -0.447192214463E+03   -0.12880E-03   -0.12882E-03  1792   0.129E-03 0.302E-06
CGA:   9    -0.447192246458E+03   -0.31995E-04   -0.32007E-04  1792   0.291E-04 0.297E-06
CGA:  10    -0.447192254398E+03   -0.79396E-05   -0.79414E-05  1792   0.850E-05 0.132E-06
CGA:  11    -0.447192257020E+03   -0.26224E-05   -0.26226E-05  1792   0.318E-05 0.218E-07
CGA:  12    -0.447192258092E+03   -0.10712E-05   -0.10731E-05  1792   0.135E-05-0.205E-07
CGA:  13    -0.447192258512E+03   -0.42053E-06   -0.42206E-06  1792   0.525E-06-0.278E-07
CGA:  14    -0.447192258657E+03   -0.14494E-06   -0.14554E-06  1792   0.175E-06-0.168E-07
CGA:  15    -0.447192258704E+03   -0.47119E-07   -0.47776E-07  1792   0.589E-07-0.837E-08
CGA:  16    -0.447192258719E+03   -0.14923E-07   -0.15499E-07  1792   0.241E-07-0.402E-08
CGA:  17    -0.447192258724E+03   -0.51186E-08   -0.55293E-08  1792   0.129E-07-0.189E-08
  15 F= -.44719226E+03 E0= -.44719226E+03  d E =-.198735E-11
       N       E                     dE             d eps       ncg     rms          ort
SDA:   1    -0.446869079925E+03    0.32318E+00    0.00000E+00  1792   0.719E+00 0.000E+00
CGA:   2    -0.447154324642E+03   -0.28524E+00   -0.28558E+00  1792   0.118E+00-0.226E-02
CGA:   3    -0.447189908680E+03   -0.35584E-01   -0.35582E-01  1792   0.189E-01 0.680E-04
CGA:   4    -0.447195611111E+03   -0.57024E-02   -0.57023E-02  1792   0.501E-02 0.116E-04
CGA:   5    -0.447197331327E+03   -0.17202E-02   -0.17200E-02  1792   0.188E-02 0.352E-05
CGA:   6    -0.447198055465E+03   -0.72414E-03   -0.72399E-03  1792   0.871E-03 0.162E-05
CGA:   7    -0.447198305276E+03   -0.24981E-03   -0.24981E-03  1792   0.312E-03 0.300E-06
CGA:   8    -0.447198383657E+03   -0.78381E-04   -0.78384E-04  1792   0.758E-04 0.648E-07
CGA:   9    -0.447198403585E+03   -0.19928E-04   -0.19925E-04  1792   0.194E-04-0.942E-07
CGA:  10    -0.447198408711E+03   -0.51267E-05   -0.51250E-05  1792   0.560E-05-0.840E-07
CGA:  11    -0.447198410418E+03   -0.17063E-05   -0.17075E-05  1792   0.204E-05-0.360E-07
CGA:  12    -0.447198411047E+03   -0.62948E-06   -0.63033E-06  1792   0.866E-06-0.925E-08
CGA:  13    -0.447198411282E+03   -0.23449E-06   -0.23533E-06  1792   0.314E-06 0.133E-07
CGA:  14    -0.447198411362E+03   -0.80861E-07   -0.81635E-07  1792   0.113E-06 0.530E-08
CGA:  15    -0.447198411392E+03   -0.29220E-07   -0.29663E-07  1792   0.429E-07-0.343E-08
CGA:  16    -0.447198411403E+03   -0.10918E-07   -0.11496E-07  1792   0.175E-07-0.358E-08
CGA:  17    -0.447198411406E+03   -0.35143E-08   -0.40047E-08  1792   0.739E-08-0.120E-08
  16 F= -.44719841E+03 E0= -.44719841E+03  d E =-.325302E-11
       N       E                     dE             d eps       ncg     rms          ort
SDA:   1    -0.446540125524E+03    0.65829E+00    0.00000E+00  1792   0.145E+01 0.000E+00
CGA:   2    -0.447122271127E+03   -0.58215E+00   -0.58159E+00  1792   0.199E+00 0.376E-02
CGA:   3    -0.447181588650E+03   -0.59318E-01   -0.59317E-01  1792   0.338E-01 0.809E-04
CGA:   4    -0.447191341142E+03   -0.97525E-02   -0.97525E-02  1792   0.734E-02-0.957E-06
CGA:   5    -0.447193922902E+03   -0.25818E-02   -0.25817E-02  1792   0.300E-02-0.945E-07
CGA:   6    -0.447195090852E+03   -0.11679E-02   -0.11679E-02  1792   0.145E-02-0.172E-06
CGA:   7    -0.447195505230E+03   -0.41438E-03   -0.41438E-03  1792   0.475E-03 0.320E-06
CGA:   8    -0.447195620369E+03   -0.11514E-03   -0.11515E-03  1792   0.116E-03 0.112E-06
CGA:   9    -0.447195647749E+03   -0.27380E-04   -0.27386E-04  1792   0.268E-04 0.754E-07
CGA:  10    -0.447195654773E+03   -0.70232E-05   -0.70249E-05  1792   0.779E-05 0.361E-07
CGA:  11    -0.447195657205E+03   -0.24327E-05   -0.24333E-05  1792   0.283E-05-0.970E-11
CGA:  12    -0.447195658109E+03   -0.90423E-06   -0.90495E-06  1792   0.121E-05 0.857E-09
CGA:  13    -0.447195658470E+03   -0.36071E-06   -0.36155E-06  1792   0.436E-06-0.162E-07
CGA:  14    -0.447195658595E+03   -0.12446E-06   -0.12506E-06  1792   0.150E-06-0.161E-07
CGA:  15    -0.447195658632E+03   -0.37260E-07   -0.37591E-07  1792   0.486E-07-0.772E-08
CGA:  16    -0.447195658644E+03   -0.11798E-07   -0.12360E-07  1792   0.153E-07-0.298E-08
CGA:  17    -0.447195658647E+03   -0.36998E-08   -0.44480E-08  1792   0.798E-08-0.267E-08
  17 F= -.44719566E+03 E0= -.44719566E+03  d E =-.397113E-11
       N       E                     dE             d eps       ncg     rms          ort
SDA:   1    -0.446864937155E+03    0.33072E+00    0.00000E+00  1792   0.737E+00 0.000E+00
CGA:   2    -0.447154030145E+03   -0.28909E+00   -0.28933E+00  1792   0.114E+00-0.177E-02
CGA:   3    -0.447187050503E+03   -0.33020E-01   -0.33021E-01  1792   0.189E-01 0.499E-04
CGA:   4    -0.447192554905E+03   -0.55044E-02   -0.55044E-02  1792   0.453E-02 0.733E-05
CGA:   5    -0.447194070144E+03   -0.15152E-02   -0.15150E-02  1792   0.162E-02 0.594E-05
CGA:   6    -0.447194675085E+03   -0.60494E-03   -0.60487E-03  1792   0.829E-03 0.107E-05
CGA:   7    -0.447194909629E+03   -0.23454E-03   -0.23454E-03  1792   0.300E-03 0.823E-08
CGA:   8    -0.447194985734E+03   -0.76105E-04   -0.76104E-04  1792   0.843E-04-0.166E-07
CGA:   9    -0.447195006248E+03   -0.20515E-04   -0.20521E-04  1792   0.195E-04 0.109E-06
CGA:  10    -0.447195011180E+03   -0.49316E-05   -0.49342E-05  1792   0.499E-05 0.491E-07
CGA:  11    -0.447195012594E+03   -0.14141E-05   -0.14145E-05  1792   0.170E-05-0.630E-08
CGA:  12    -0.447195013103E+03   -0.50836E-06   -0.50904E-06  1792   0.721E-06-0.137E-07
CGA:  13    -0.447195013304E+03   -0.20191E-06   -0.20245E-06  1792   0.327E-06-0.588E-08
CGA:  14    -0.447195013380E+03   -0.75172E-07   -0.75577E-07  1792   0.132E-06-0.321E-08
CGA:  15    -0.447195013411E+03   -0.31228E-07   -0.31656E-07  1792   0.441E-07-0.298E-08
CGA:  16    -0.447195013421E+03   -0.10503E-07   -0.11091E-07  1792   0.150E-07-0.240E-08
CGA:  17    -0.447195013425E+03   -0.34015E-08   -0.39462E-08  1792   0.599E-08-0.166E-08
  18 F= -.44719501E+03 E0= -.44719501E+03  d E =-.849959E-15
       N       E                     dE             d eps       ncg     rms          ort
SDA:   1    -0.446537359528E+03    0.65765E+00    0.00000E+00  1792   0.148E+01 0.000E+00
CGA:   2    -0.447113480596E+03   -0.57612E+00   -0.57524E+00  1792   0.249E+00 0.631E-02
CGA:   3    -0.447181889281E+03   -0.68409E-01   -0.68410E-01  1792   0.377E-01 0.564E-04
CGA:   4    -0.447192813542E+03   -0.10924E-01   -0.10924E-01  1792   0.819E-02-0.130E-04
CGA:   5    -0.447195758476E+03   -0.29449E-02   -0.29457E-02  1792   0.303E-02-0.102E-04
CGA:   6    -0.447196921922E+03   -0.11634E-02   -0.11635E-02  1792   0.155E-02-0.116E-05
CGA:   7    -0.447197369645E+03   -0.44772E-03   -0.44773E-03  1792   0.427E-03 0.457E-06
CGA:   8    -0.447197485447E+03   -0.11580E-03   -0.11581E-03  1792   0.920E-04 0.445E-06
CGA:   9    -0.447197509960E+03   -0.24514E-04   -0.24514E-04  1792   0.229E-04-0.187E-07
CGA:  10    -0.447197515994E+03   -0.60339E-05   -0.60351E-05  1792   0.672E-05 0.207E-07
CGA:  11    -0.447197518026E+03   -0.20315E-05   -0.20319E-05  1792   0.243E-05 0.240E-07
CGA:  12    -0.447197518754E+03   -0.72791E-06   -0.72841E-06  1792   0.102E-05 0.276E-07
CGA:  13    -0.447197519051E+03   -0.29723E-06   -0.29792E-06  1792   0.377E-06-0.352E-08
CGA:  14    -0.447197519162E+03   -0.11053E-06   -0.11125E-06  1792   0.131E-06-0.218E-07
CGA:  15    -0.447197519197E+03   -0.35619E-07   -0.36184E-07  1792   0.543E-07-0.173E-07
CGA:  16    -0.447197519208E+03   -0.10878E-07   -0.10917E-07  1792   0.225E-07-0.653E-08
CGA:  17    -0.447197519212E+03   -0.40745E-08   -0.43613E-08  1792   0.838E-08-0.251E-08
  19 F= -.44719752E+03 E0= -.44719752E+03  d E =-.125299E-10
       N       E                     dE             d eps       ncg     rms          ort
SDA:   1    -0.446863252386E+03    0.33427E+00    0.00000E+00  1792   0.717E+00 0.000E+00
CGA:   2    -0.447152272534E+03   -0.28902E+00   -0.28897E+00  1792   0.111E+00 0.387E-03
CGA:   3    -0.447184121664E+03   -0.31849E-01   -0.31849E-01  1792   0.205E-01-0.341E-04
CGA:   4    -0.447189893903E+03   -0.57722E-02   -0.57722E-02  1792   0.438E-02-0.691E-05
CGA:   5    -0.447191345074E+03   -0.14512E-02   -0.14511E-02  1792   0.158E-02 0.244E-05
CGA:   6    -0.447191912294E+03   -0.56722E-03   -0.56725E-03  1792   0.890E-03-0.470E-06
CGA:   7    -0.447192147199E+03   -0.23491E-03   -0.23489E-03  1792   0.355E-03-0.350E-06
CGA:   8    -0.447192223945E+03   -0.76747E-04   -0.76750E-04  1792   0.112E-03 0.352E-07
CGA:   9    -0.447192247792E+03   -0.23846E-04   -0.23865E-04  1792   0.280E-04 0.234E-06
CGA:  10    -0.447192254227E+03   -0.64350E-05   -0.64428E-05  1792   0.734E-05 0.123E-06
CGA:  11    -0.447192256095E+03   -0.18677E-05   -0.18685E-05  1792   0.255E-05 0.818E-08
CGA:  12    -0.447192256822E+03   -0.72734E-06   -0.72804E-06  1792   0.101E-05-0.195E-07
CGA:  13    -0.447192257121E+03   -0.29866E-06   -0.29956E-06  1792   0.425E-06-0.170E-07
CGA:  14    -0.447192257241E+03   -0.12058E-06   -0.12127E-06  1792   0.158E-06-0.134E-07
CGA:  15    -0.447192257283E+03   -0.41520E-07   -0.42032E-07  1792   0.569E-07-0.633E-08
CGA:  16    -0.447192257296E+03   -0.13300E-07   -0.13783E-07  1792   0.189E-07-0.160E-08
CGA:  17    -0.447192257300E+03   -0.45075E-08   -0.51987E-08  1792   0.774E-08-0.212E-08
  20 F= -.44719226E+03 E0= -.44719226E+03  d E =-.136872E-13
       N       E                     dE             d eps       ncg     rms          ort
SDA:   1    -0.446532246249E+03    0.66001E+00    0.00000E+00  1792   0.143E+01 0.000E+00
CGA:   2    -0.447103573090E+03   -0.57133E+00   -0.57246E+00  1792   0.242E+00-0.778E-02
CGA:   3    -0.447175047182E+03   -0.71474E-01   -0.71471E-01  1792   0.386E-01 0.226E-03
CGA:   4    -0.447186641060E+03   -0.11594E-01   -0.11594E-01  1792   0.102E-01 0.329E-04
CGA:   5    -0.447190230560E+03   -0.35895E-02   -0.35892E-02  1792   0.381E-02 0.560E-05
CGA:   6    -0.447191760224E+03   -0.15297E-02   -0.15295E-02  1792   0.163E-02 0.144E-05
CGA:   7    -0.447192257012E+03   -0.49679E-03   -0.49679E-03  1792   0.579E-03 0.398E-06
CGA:   8    -0.447192396264E+03   -0.13925E-03   -0.13926E-03  1792   0.145E-03 0.121E-06
CGA:   9    -0.447192434447E+03   -0.38183E-04   -0.38180E-04  1792   0.338E-04-0.118E-06
CGA:  10    -0.447192443835E+03   -0.93880E-05   -0.93867E-05  1792   0.101E-04-0.126E-06
CGA:  11    -0.447192447107E+03   -0.32722E-05   -0.32754E-05  1792   0.387E-05-0.746E-07
CGA:  12    -0.447192448297E+03   -0.11893E-05   -0.11898E-05  1792   0.153E-05 0.928E-08
CGA:  13    -0.447192448748E+03   -0.45119E-06   -0.45188E-06  1792   0.475E-06 0.202E-07
CGA:  14    -0.447192448893E+03   -0.14519E-06   -0.14586E-06  1792   0.152E-06 0.131E-08
CGA:  15    -0.447192448936E+03   -0.42990E-07   -0.43504E-07  1792   0.570E-07-0.551E-08
CGA:  16    -0.447192448950E+03   -0.14315E-07   -0.14814E-07  1792   0.229E-07-0.246E-08
CGA:  17    -0.447192448955E+03   -0.46930E-08   -0.52675E-08  1792   0.837E-08-0.532E-09
  21 F= -.44719245E+03 E0= -.44719245E+03  d E =-.613941E-15
       N       E                     dE             d eps       ncg     rms          ort
SDA:   1    -0.446870605779E+03    0.32184E+00    0.00000E+00  1792   0.719E+00 0.000E+00
CGA:   2    -0.447161612875E+03   -0.29101E+00   -0.29075E+00  1792   0.101E+00 0.178E-02
CGA:   3    -0.447191222076E+03   -0.29609E-01   -0.29609E-01  1792   0.170E-01 0.112E-04
CGA:   4    -0.447196195109E+03   -0.49730E-02   -0.49730E-02  1792   0.372E-02 0.502E-06
CGA:   5    -0.447197545752E+03   -0.13506E-02   -0.13506E-02  1792   0.150E-02 0.459E-06
CGA:   6    -0.447198135512E+03   -0.58976E-03   -0.58977E-03  1792   0.702E-03-0.203E-06
CGA:   7    -0.447198335333E+03   -0.19982E-03   -0.19982E-03  1792   0.228E-03-0.285E-07
CGA:   8    -0.447198393138E+03   -0.57805E-04   -0.57810E-04  1792   0.540E-04 0.969E-07
CGA:   9    -0.447198406918E+03   -0.13780E-04   -0.13786E-04  1792   0.123E-04 0.105E-06
CGA:  10    -0.447198410312E+03   -0.33943E-05   -0.33962E-05  1792   0.383E-05 0.522E-07
CGA:  11    -0.447198411462E+03   -0.11503E-05   -0.11509E-05  1792   0.142E-05 0.779E-08
CGA:  12    -0.447198411930E+03   -0.46803E-06   -0.46890E-06  1792   0.581E-06-0.618E-08
CGA:  13    -0.447198412107E+03   -0.17687E-06   -0.17755E-06  1792   0.218E-06-0.116E-07
CGA:  14    -0.447198412165E+03   -0.57447E-07   -0.57894E-07  1792   0.714E-07-0.447E-08
CGA:  15    -0.447198412184E+03   -0.19281E-07   -0.19845E-07  1792   0.248E-07-0.556E-08
CGA:  16    -0.447198412190E+03   -0.61809E-08   -0.67601E-08  1792   0.109E-07-0.347E-08
  22 F= -.44719841E+03 E0= -.44719841E+03  d E =-.174149E-13
       N       E                     dE             d eps       ncg     rms          ort
SDA:   1    -0.446540123105E+03    0.65829E+00    0.00000E+00  1792   0.145E+01 0.000E+00
CGA:   2    -0.447122233597E+03   -0.58211E+00   -0.58160E+00  1792   0.200E+00 0.369E-02
CGA:   3    -0.447181616367E+03   -0.59383E-01   -0.59383E-01  1792   0.338E-01 0.772E-04
CGA:   4    -0.447191375541E+03   -0.97592E-02   -0.97591E-02  1792   0.723E-02-0.148E-05
CGA:   5    -0.447193949641E+03   -0.25741E-02   -0.25741E-02  1792   0.294E-02-0.125E-06
CGA:   6    -0.447195104954E+03   -0.11553E-02   -0.11553E-02  1792   0.143E-02-0.195E-06
CGA:   7    -0.447195506210E+03   -0.40126E-03   -0.40127E-03  1792   0.477E-03 0.283E-06
CGA:   8    -0.447195620664E+03   -0.11445E-03   -0.11446E-03  1792   0.115E-03 0.122E-06
CGA:   9    -0.447195647505E+03   -0.26841E-04   -0.26846E-04  1792   0.267E-04 0.683E-07
CGA:  10    -0.447195654496E+03   -0.69912E-05   -0.69931E-05  1792   0.770E-05 0.352E-07
CGA:  11    -0.447195656892E+03   -0.23959E-05   -0.23966E-05  1792   0.274E-05 0.334E-08
CGA:  12    -0.447195657807E+03   -0.91473E-06   -0.91539E-06  1792   0.116E-05-0.267E-08
CGA:  13    -0.447195658153E+03   -0.34643E-06   -0.34699E-06  1792   0.422E-06-0.161E-07
CGA:  14    -0.447195658275E+03   -0.12128E-06   -0.12181E-06  1792   0.131E-06-0.144E-07
CGA:  15    -0.447195658310E+03   -0.35481E-07   -0.35926E-07  1792   0.431E-07-0.709E-08
CGA:  16    -0.447195658320E+03   -0.10066E-07   -0.10517E-07  1792   0.141E-07-0.211E-08
CGA:  17    -0.447195658324E+03   -0.33288E-08   -0.39477E-08  1792   0.722E-08-0.210E-08
  23 F= -.44719566E+03 E0= -.44719566E+03  d E =-.567144E-13
       N       E                     dE             d eps       ncg     rms          ort
SDA:   1    -0.446864936562E+03    0.33072E+00    0.00000E+00  1792   0.738E+00 0.000E+00
CGA:   2    -0.447153943386E+03   -0.28901E+00   -0.28923E+00  1792   0.114E+00-0.174E-02
CGA:   3    -0.447186998065E+03   -0.33055E-01   -0.33056E-01  1792   0.192E-01 0.490E-04
CGA:   4    -0.447192530213E+03   -0.55321E-02   -0.55322E-02  1792   0.461E-02 0.691E-05
CGA:   5    -0.447194060032E+03   -0.15298E-02   -0.15296E-02  1792   0.163E-02 0.592E-05
CGA:   6    -0.447194672783E+03   -0.61275E-03   -0.61268E-03  1792   0.825E-03 0.106E-05
CGA:   7    -0.447194908193E+03   -0.23541E-03   -0.23541E-03  1792   0.300E-03 0.313E-07
CGA:   8    -0.447194985381E+03   -0.77188E-04   -0.77186E-04  1792   0.825E-04-0.374E-07
CGA:   9    -0.447195005567E+03   -0.20186E-04   -0.20193E-04  1792   0.193E-04 0.113E-06
CGA:  10    -0.447195010426E+03   -0.48587E-05   -0.48619E-05  1792   0.497E-05 0.569E-07
CGA:  11    -0.447195011833E+03   -0.14073E-05   -0.14078E-05  1792   0.169E-05-0.123E-07
CGA:  12    -0.447195012340E+03   -0.50654E-06   -0.50731E-06  1792   0.687E-06-0.113E-07
CGA:  13    -0.447195012546E+03   -0.20634E-06   -0.20711E-06  1792   0.266E-06-0.845E-08
CGA:  14    -0.447195012622E+03   -0.75557E-07   -0.76087E-07  1792   0.914E-07-0.216E-08
CGA:  15    -0.447195012647E+03   -0.24898E-07   -0.25354E-07  1792   0.317E-07-0.347E-08
CGA:  16    -0.447195012654E+03   -0.72505E-08   -0.77118E-08  1792   0.108E-07-0.114E-08
  24 F= -.44719501E+03 E0= -.44719501E+03  d E =-.215751E-11
       N       E                     dE             d eps       ncg     rms          ort
SDA:   1    -0.446537360829E+03    0.65765E+00    0.00000E+00  1792   0.148E+01 0.000E+00
CGA:   2    -0.447113216851E+03   -0.57586E+00   -0.57503E+00  1792   0.251E+00 0.623E-02
CGA:   3    -0.447181776434E+03   -0.68560E-01   -0.68562E-01  1792   0.384E-01 0.568E-04
CGA:   4    -0.447192778764E+03   -0.11002E-01   -0.11002E-01  1792   0.830E-02-0.122E-04
CGA:   5    -0.447195746461E+03   -0.29677E-02   -0.29683E-02  1792   0.303E-02-0.100E-04
CGA:   6    -0.447196918547E+03   -0.11721E-02   -0.11722E-02  1792   0.155E-02-0.121E-05
CGA:   7    -0.447197368604E+03   -0.45006E-03   -0.45006E-03  1792   0.432E-03 0.451E-06
CGA:   8    -0.447197485739E+03   -0.11713E-03   -0.11715E-03  1792   0.915E-04 0.440E-06
CGA:   9    -0.447197510538E+03   -0.24799E-04   -0.24799E-04  1792   0.228E-04-0.267E-07
CGA:  10    -0.447197516460E+03   -0.59217E-05   -0.59236E-05  1792   0.685E-05 0.310E-07
CGA:  11    -0.447197518509E+03   -0.20495E-05   -0.20500E-05  1792   0.244E-05 0.237E-07
CGA:  12    -0.447197519245E+03   -0.73527E-06   -0.73585E-06  1792   0.103E-05 0.234E-07
CGA:  13    -0.447197519543E+03   -0.29849E-06   -0.29911E-06  1792   0.384E-06-0.983E-09
CGA:  14    -0.447197519652E+03   -0.10926E-06   -0.10963E-06  1792   0.141E-06-0.196E-07
CGA:  15    -0.447197519690E+03   -0.37526E-07   -0.37827E-07  1792   0.570E-07-0.189E-07
CGA:  16    -0.447197519702E+03   -0.12053E-07   -0.12268E-07  1792   0.231E-07-0.754E-08
CGA:  17    -0.447197519706E+03   -0.41982E-08   -0.44414E-08  1792   0.870E-08-0.250E-08
  25 F= -.44719752E+03 E0= -.44719752E+03  d E =-.351952E-13
       N       E                     dE             d eps       ncg     rms          ort
SDA:   1    -0.446980966694E+03    0.21655E+00    0.00000E+00  1792   0.473E+00 0.000E+00
CGA:   2    -0.447170017262E+03   -0.18905E+00   -0.18913E+00  1792   0.771E-01-0.580E-03
CGA:   3    -0.447192130209E+03   -0.22113E-01   -0.22113E-01  1792   0.142E-01 0.550E-07
CGA:   4    -0.447196158903E+03   -0.40287E-02   -0.40287E-02  1792   0.360E-02 0.304E-05
CGA:   5    -0.447197306780E+03   -0.11479E-02   -0.11478E-02  1792   0.128E-02 0.508E-05
CGA:   6    -0.447197769423E+03   -0.46264E-03   -0.46257E-03  1792   0.619E-03 0.123E-05
CGA:   7    -0.447197962719E+03   -0.19330E-03   -0.19330E-03  1792   0.209E-03-0.430E-06
CGA:   8    -0.447198018682E+03   -0.55962E-04   -0.55962E-04  1792   0.581E-04-0.263E-07
CGA:   9    -0.447198033498E+03   -0.14817E-04   -0.14824E-04  1792   0.150E-04 0.148E-06
CGA:  10    -0.447198037369E+03   -0.38707E-05   -0.38718E-05  1792   0.436E-05 0.145E-07
CGA:  11    -0.447198038682E+03   -0.13134E-05   -0.13142E-05  1792   0.161E-05-0.244E-07
CGA:  12    -0.447198039166E+03   -0.48395E-06   -0.48468E-06  1792   0.641E-06-0.101E-07
CGA:  13    -0.447198039347E+03   -0.18029E-06   -0.18074E-06  1792   0.236E-06-0.104E-07
CGA:  14    -0.447198039409E+03   -0.62850E-07   -0.63270E-07  1792   0.773E-07-0.584E-08
CGA:  15    -0.447198039429E+03   -0.19321E-07   -0.19926E-07  1792   0.265E-07-0.103E-08
CGA:  16    -0.447198039435E+03   -0.65047E-08   -0.69340E-08  1792   0.945E-08-0.104E-08
  26 F= -.44719804E+03 E0= -.44719804E+03  d E =-.103830E-11
       N       E                     dE             d eps       ncg     rms          ort
SDA:   1    -0.446991388499E+03    0.20665E+00    0.00000E+00  1792   0.404E+00 0.000E+00
CGA:   2    -0.447171673066E+03   -0.18028E+00   -0.18015E+00  1792   0.660E-01 0.578E-03
CGA:   3    -0.447191671920E+03   -0.19999E-01   -0.19999E-01  1792   0.147E-01-0.594E-04
CGA:   4    -0.447195606369E+03   -0.39344E-02   -0.39342E-02  1792   0.448E-02-0.410E-05
CGA:   5    -0.447197105257E+03   -0.14989E-02   -0.14989E-02  1792   0.169E-02 0.128E-06
CGA:   6    -0.447197752643E+03   -0.64739E-03   -0.64738E-03  1792   0.661E-03 0.233E-06
CGA:   7    -0.447197962148E+03   -0.20951E-03   -0.20951E-03  1792   0.216E-03-0.207E-06
CGA:   8    -0.447198017198E+03   -0.55050E-04   -0.55047E-04  1792   0.710E-04-0.699E-07
CGA:   9    -0.447198035315E+03   -0.18117E-04   -0.18115E-04  1792   0.177E-04-0.473E-07
CGA:  10    -0.447198040761E+03   -0.54465E-05   -0.54473E-05  1792   0.583E-05-0.315E-07
CGA:  11    -0.447198042509E+03   -0.17475E-05   -0.17482E-05  1792   0.226E-05-0.170E-07
CGA:  12    -0.447198043154E+03   -0.64507E-06   -0.64557E-06  1792   0.830E-06-0.693E-09
CGA:  13    -0.447198043346E+03   -0.19247E-06   -0.19320E-06  1792   0.296E-06 0.303E-08
CGA:  14    -0.447198043418E+03   -0.71741E-07   -0.72399E-07  1792   0.876E-07 0.176E-08
CGA:  15    -0.447198043440E+03   -0.21959E-07   -0.22522E-07  1792   0.311E-07 0.111E-08
CGA:  16    -0.447198043448E+03   -0.78180E-08   -0.83700E-08  1792   0.136E-07-0.167E-09
  27 F= -.44719804E+03 E0= -.44719804E+03  d E =-.230982E-11
       N       E                     dE             d eps       ncg     rms          ort
SDA:   1    -0.447094578202E+03    0.10347E+00    0.00000E+00  1792   0.201E+00 0.000E+00
CGA:   2    -0.447184636407E+03   -0.90058E-01   -0.89989E-01  1792   0.340E-01 0.317E-03
CGA:   3    -0.447194712306E+03   -0.10076E-01   -0.10076E-01  1792   0.743E-02-0.213E-04
CGA:   4    -0.447196688192E+03   -0.19759E-02   -0.19759E-02  1792   0.223E-02-0.595E-06
CGA:   5    -0.447197441896E+03   -0.75370E-03   -0.75370E-03  1792   0.879E-03-0.303E-07
CGA:   6    -0.447197757278E+03   -0.31538E-03   -0.31537E-03  1792   0.363E-03 0.323E-06
CGA:   7    -0.447197860642E+03   -0.10336E-03   -0.10336E-03  1792   0.150E-03-0.110E-06
CGA:   8    -0.447197893716E+03   -0.33073E-04   -0.33073E-04  1792   0.453E-04-0.939E-08
CGA:   9    -0.447197905839E+03   -0.12123E-04   -0.12123E-04  1792   0.120E-04-0.256E-07
CGA:  10    -0.447197908951E+03   -0.31126E-05   -0.31126E-05  1792   0.442E-05-0.157E-07
CGA:  11    -0.447197910097E+03   -0.11461E-05   -0.11459E-05  1792   0.163E-05-0.215E-07
CGA:  12    -0.447197910536E+03   -0.43864E-06   -0.43930E-06  1792   0.695E-06-0.761E-09
CGA:  13    -0.447197910698E+03   -0.16199E-06   -0.16240E-06  1792   0.261E-06-0.290E-08
CGA:  14    -0.447197910755E+03   -0.56898E-07   -0.57464E-07  1792   0.899E-07 0.899E-09
CGA:  15    -0.447197910775E+03   -0.20078E-07   -0.20594E-07  1792   0.292E-07 0.609E-09
CGA:  16    -0.447197910782E+03   -0.71523E-08   -0.77145E-08  1792   0.119E-07-0.113E-08
  28 F= -.44719791E+03 E0= -.44719791E+03  d E =-.298421E-11
       N       E                     dE             d eps       ncg     rms          ort
SDA:   1    -0.446992013893E+03    0.20590E+00    0.00000E+00  1792   0.406E+00 0.000E+00
CGA:   2    -0.447171280123E+03   -0.17927E+00   -0.17926E+00  1792   0.677E-01-0.115E-03
CGA:   3    -0.447191677182E+03   -0.20397E-01   -0.20397E-01  1792   0.154E-01-0.402E-04
CGA:   4    -0.447195676155E+03   -0.39990E-02   -0.39986E-02  1792   0.457E-02-0.716E-05
CGA:   5    -0.447197184695E+03   -0.15085E-02   -0.15086E-02  1792   0.173E-02-0.150E-07
CGA:   6    -0.447197842721E+03   -0.65803E-03   -0.65797E-03  1792   0.740E-03 0.453E-06
CGA:   7    -0.447198059427E+03   -0.21671E-03   -0.21671E-03  1792   0.293E-03-0.364E-06
CGA:   8    -0.447198123071E+03   -0.63644E-04   -0.63643E-04  1792   0.830E-04 0.619E-08
CGA:   9    -0.447198144525E+03   -0.21455E-04   -0.21454E-04  1792   0.233E-04-0.493E-07
CGA:  10    -0.447198150834E+03   -0.63090E-05   -0.63091E-05  1792   0.898E-05-0.259E-07
CGA:  11    -0.447198153318E+03   -0.24840E-05   -0.24843E-05  1792   0.316E-05-0.222E-07
CGA:  12    -0.447198154204E+03   -0.88517E-06   -0.88578E-06  1792   0.115E-05 0.283E-08
CGA:  13    -0.447198154489E+03   -0.28580E-06   -0.28626E-06  1792   0.368E-06-0.705E-09
CGA:  14    -0.447198154581E+03   -0.91608E-07   -0.92240E-07  1792   0.115E-06 0.246E-08
CGA:  15    -0.447198154608E+03   -0.27114E-07   -0.27779E-07  1792   0.399E-07 0.214E-08
CGA:  16    -0.447198154618E+03   -0.10197E-07   -0.10658E-07  1792   0.163E-07-0.217E-08
CGA:  17    -0.447198154622E+03   -0.37908E-08   -0.44034E-08  1792   0.835E-08-0.209E-08
  29 F= -.44719815E+03 E0= -.44719815E+03  d E =-.375123E-11
       N       E                     dE             d eps       ncg     rms          ort
SDA:   1    -0.447061458425E+03    0.13670E+00    0.00000E+00  1792   0.238E+00 0.000E+00
CGA:   2    -0.447159917127E+03   -0.98459E-01   -0.98092E-01  1792   0.746E-01 0.212E-02
CGA:   3    -0.447179465049E+03   -0.19548E-01   -0.19543E-01  1792   0.119E-01-0.858E-04
CGA:   4    -0.447182819268E+03   -0.33542E-02   -0.33542E-02  1792   0.329E-02-0.805E-05
CGA:   5    -0.447183810051E+03   -0.99078E-03   -0.99076E-03  1792   0.120E-02 0.597E-06
CGA:   6    -0.447184226715E+03   -0.41666E-03   -0.41650E-03  1792   0.539E-03 0.280E-05
CGA:   7    -0.447184379500E+03   -0.15279E-03   -0.15279E-03  1792   0.242E-03 0.806E-06
CGA:   8    -0.447184434575E+03   -0.55075E-04   -0.55074E-04  1792   0.728E-04-0.542E-07
CGA:   9    -0.447184451537E+03   -0.16962E-04   -0.16967E-04  1792   0.227E-04 0.869E-07
CGA:  10    -0.447184456479E+03   -0.49419E-05   -0.49435E-05  1792   0.690E-05 0.167E-07
CGA:  11    -0.447184458092E+03   -0.16123E-05   -0.16100E-05  1792   0.210E-05-0.609E-07
CGA:  12    -0.447184458640E+03   -0.54804E-06   -0.54770E-06  1792   0.860E-06-0.661E-07
CGA:  13    -0.447184458852E+03   -0.21188E-06   -0.21149E-06  1792   0.353E-06-0.415E-07
CGA:  14    -0.447184458937E+03   -0.85667E-07   -0.85658E-07  1792   0.138E-06-0.278E-07
CGA:  15    -0.447184458970E+03   -0.32738E-07   -0.33184E-07  1792   0.612E-07-0.150E-07
CGA:  16    -0.447184458981E+03   -0.11380E-07   -0.11513E-07  1792   0.302E-07-0.510E-08
CGA:  17    -0.447184458986E+03   -0.47548E-08   -0.50344E-08  1792   0.117E-07-0.131E-08
  30 F= -.44718446E+03 E0= -.44718446E+03  d E =-.987624E-12
       N       E                     dE             d eps       ncg     rms          ort
SDA:   1    -0.446909399847E+03    0.27506E+00    0.00000E+00  1792   0.556E+00 0.000E+00
CGA:   2    -0.447121934796E+03   -0.21253E+00   -0.21354E+00  1792   0.185E+00-0.659E-02
CGA:   3    -0.447171511675E+03   -0.49577E-01   -0.49577E-01  1792   0.244E-01 0.283E-03
CGA:   4    -0.447178439813E+03   -0.69281E-02   -0.69279E-02  1792   0.768E-02 0.160E-04
CGA:   5    -0.447180916372E+03   -0.24766E-02   -0.24767E-02  1792   0.271E-02-0.727E-06
CGA:   6    -0.447181973667E+03   -0.10573E-02   -0.10579E-02  1792   0.121E-02-0.532E-05
CGA:   7    -0.447182347802E+03   -0.37413E-03   -0.37415E-03  1792   0.379E-03-0.456E-06
CGA:   8    -0.447182440695E+03   -0.92893E-04   -0.92898E-04  1792   0.118E-03 0.171E-06
CGA:   9    -0.447182466906E+03   -0.26212E-04   -0.26204E-04  1792   0.297E-04-0.136E-06
CGA:  10    -0.447182474146E+03   -0.72397E-05   -0.72391E-05  1792   0.918E-05-0.341E-07
CGA:  11    -0.447182476378E+03   -0.22318E-05   -0.22328E-05  1792   0.279E-05 0.118E-07
CGA:  12    -0.447182477114E+03   -0.73647E-06   -0.73732E-06  1792   0.106E-05 0.275E-07
CGA:  13    -0.447182477379E+03   -0.26497E-06   -0.26611E-06  1792   0.459E-06 0.264E-07
CGA:  14    -0.447182477484E+03   -0.10482E-06   -0.10637E-06  1792   0.170E-06 0.210E-07
CGA:  15    -0.447182477525E+03   -0.40829E-07   -0.41704E-07  1792   0.615E-07 0.113E-07
CGA:  16    -0.447182477539E+03   -0.14523E-07   -0.15109E-07  1792   0.235E-07 0.231E-08
CGA:  17    -0.447182477545E+03   -0.55625E-08   -0.60503E-08  1792   0.989E-08-0.112E-08
  31 F= -.44718248E+03 E0= -.44718248E+03  d E =-.100099E-15
       N       E                     dE             d eps       ncg     rms          ort
SDA:   1    -0.447078207179E+03    0.10427E+00    0.00000E+00  1792   0.231E+00 0.000E+00
CGA:   2    -0.447175112818E+03   -0.96906E-01   -0.96687E-01  1792   0.692E-01 0.117E-02
CGA:   3    -0.447192993400E+03   -0.17881E-01   -0.17879E-01  1792   0.115E-01-0.572E-04
CGA:   4    -0.447196317645E+03   -0.33242E-02   -0.33244E-02  1792   0.325E-02-0.797E-05
CGA:   5    -0.447197302761E+03   -0.98512E-03   -0.98507E-03  1792   0.120E-02 0.118E-05
CGA:   6    -0.447197723469E+03   -0.42071E-03   -0.42045E-03  1792   0.506E-03 0.338E-05
CGA:   7    -0.447197878107E+03   -0.15464E-03   -0.15463E-03  1792   0.216E-03 0.309E-06
CGA:   8    -0.447197927451E+03   -0.49345E-04   -0.49347E-04  1792   0.667E-04 0.306E-07
CGA:   9    -0.447197943934E+03   -0.16483E-04   -0.16485E-04  1792   0.182E-04 0.481E-07
CGA:  10    -0.447197948639E+03   -0.47045E-05   -0.47046E-05  1792   0.572E-05-0.228E-07
CGA:  11    -0.447197950041E+03   -0.14021E-05   -0.14012E-05  1792   0.186E-05-0.496E-07
CGA:  12    -0.447197950555E+03   -0.51430E-06   -0.51544E-06  1792   0.789E-06-0.671E-07
CGA:  13    -0.447197950747E+03   -0.19189E-06   -0.19157E-06  1792   0.320E-06-0.361E-07
CGA:  14    -0.447197950824E+03   -0.77303E-07   -0.77493E-07  1792   0.115E-06-0.214E-07
CGA:  15    -0.447197950854E+03   -0.29220E-07   -0.29964E-07  1792   0.445E-07-0.106E-07
CGA:  16    -0.447197950864E+03   -0.98189E-08   -0.10373E-07  1792   0.203E-07-0.469E-08
  32 F= -.44719795E+03 E0= -.44719795E+03  d E =-.895995E-11
       N       E                     dE             d eps       ncg     rms          ort
SDA:   1    -0.446991756132E+03    0.20619E+00    0.00000E+00  1792   0.404E+00 0.000E+00
CGA:   2    -0.447171404870E+03   -0.17965E+00   -0.17949E+00  1792   0.669E-01 0.637E-03
CGA:   3    -0.447191626007E+03   -0.20221E-01   -0.20224E-01  1792   0.145E-01-0.695E-04
CGA:   4    -0.447195539902E+03   -0.39139E-02   -0.39138E-02  1792   0.445E-02-0.466E-05
CGA:   5    -0.447197029411E+03   -0.14895E-02   -0.14895E-02  1792   0.165E-02 0.525E-07
CGA:   6    -0.447197672077E+03   -0.64267E-03   -0.64266E-03  1792   0.638E-03 0.173E-06
CGA:   7    -0.447197878582E+03   -0.20650E-03   -0.20651E-03  1792   0.192E-03-0.176E-06
CGA:   8    -0.447197931155E+03   -0.52573E-04   -0.52573E-04  1792   0.635E-04-0.505E-07
CGA:   9    -0.447197946954E+03   -0.15799E-04   -0.15797E-04  1792   0.166E-04-0.542E-07
CGA:  10    -0.447197952006E+03   -0.50513E-05   -0.50525E-05  1792   0.556E-05-0.250E-07
CGA:  11    -0.447197953614E+03   -0.16082E-05   -0.16089E-05  1792   0.223E-05-0.210E-07
CGA:  12    -0.447197954248E+03   -0.63447E-06   -0.63509E-06  1792   0.739E-06-0.474E-08
CGA:  13    -0.447197954441E+03   -0.19283E-06   -0.19335E-06  1792   0.231E-06 0.324E-08
CGA:  14    -0.447197954499E+03   -0.57935E-07   -0.58517E-07  1792   0.720E-07 0.194E-08
CGA:  15    -0.447197954517E+03   -0.18339E-07   -0.18902E-07  1792   0.275E-07 0.213E-09
CGA:  16    -0.447197954524E+03   -0.69631E-08   -0.75537E-08  1792   0.109E-07-0.920E-09
  33 F= -.44719795E+03 E0= -.44719795E+03  d E =-.112191E-10
       N       E                     dE             d eps       ncg     rms          ort
SDA:   1    -0.447092528988E+03    0.10543E+00    0.00000E+00  1792   0.205E+00 0.000E+00
CGA:   2    -0.447182728922E+03   -0.90200E-01   -0.90265E-01  1792   0.347E-01-0.338E-03
CGA:   3    -0.447193097486E+03   -0.10369E-01   -0.10368E-01  1792   0.769E-02 0.688E-05
CGA:   4    -0.447195180668E+03   -0.20832E-02   -0.20831E-02  1792   0.222E-02-0.144E-05
CGA:   5    -0.447195929559E+03   -0.74889E-03   -0.74890E-03  1792   0.875E-03 0.577E-07
CGA:   6    -0.447196256851E+03   -0.32729E-03   -0.32729E-03  1792   0.418E-03-0.113E-06
CGA:   7    -0.447196365488E+03   -0.10864E-03   -0.10864E-03  1792   0.157E-03 0.865E-07
CGA:   8    -0.447196400193E+03   -0.34706E-04   -0.34705E-04  1792   0.400E-04-0.143E-08
CGA:   9    -0.447196410725E+03   -0.10532E-04   -0.10529E-04  1792   0.123E-04-0.963E-07
CGA:  10    -0.447196413925E+03   -0.32004E-05   -0.32009E-05  1792   0.482E-05-0.256E-08
CGA:  11    -0.447196415222E+03   -0.12963E-05   -0.12973E-05  1792   0.169E-05 0.165E-07
CGA:  12    -0.447196415685E+03   -0.46340E-06   -0.46390E-06  1792   0.614E-06-0.846E-08
CGA:  13    -0.447196415837E+03   -0.15204E-06   -0.15256E-06  1792   0.211E-06-0.501E-09
CGA:  14    -0.447196415885E+03   -0.48189E-07   -0.48964E-07  1792   0.683E-07 0.343E-08
CGA:  15    -0.447196415901E+03   -0.15280E-07   -0.15758E-07  1792   0.257E-07 0.130E-09
CGA:  16    -0.447196415907E+03   -0.58571E-08   -0.63005E-08  1792   0.118E-07-0.195E-08
  34 F= -.44719642E+03 E0= -.44719642E+03  d E =-.219694E-10
       N       E                     dE             d eps       ncg     rms          ort
SDA:   1    -0.446988154386E+03    0.20826E+00    0.00000E+00  1792   0.409E+00 0.000E+00
CGA:   2    -0.447169955661E+03   -0.18180E+00   -0.18125E+00  1792   0.762E-01 0.252E-02
CGA:   3    -0.447191408201E+03   -0.21453E-01   -0.21451E-01  1792   0.159E-01-0.144E-03
CGA:   4    -0.447195810521E+03   -0.44023E-02   -0.44024E-02  1792   0.460E-02-0.444E-06
CGA:   5    -0.447197323139E+03   -0.15126E-02   -0.15126E-02  1792   0.192E-02 0.242E-06
CGA:   6    -0.447197978479E+03   -0.65534E-03   -0.65534E-03  1792   0.776E-03 0.664E-06
CGA:   7    -0.447198214276E+03   -0.23580E-03   -0.23580E-03  1792   0.283E-03-0.536E-06
CGA:   8    -0.447198282373E+03   -0.68097E-04   -0.68089E-04  1792   0.973E-04-0.176E-06
CGA:   9    -0.447198305482E+03   -0.23110E-04   -0.23113E-04  1792   0.267E-04 0.577E-07
CGA:  10    -0.447198312318E+03   -0.68352E-05   -0.68336E-05  1792   0.869E-05-0.693E-07
CGA:  11    -0.447198314586E+03   -0.22680E-05   -0.22674E-05  1792   0.324E-05-0.536E-07
CGA:  12    -0.447198315485E+03   -0.89945E-06   -0.90008E-06  1792   0.112E-05 0.186E-09
CGA:  13    -0.447198315805E+03   -0.32002E-06   -0.32059E-06  1792   0.421E-06 0.132E-08
CGA:  14    -0.447198315903E+03   -0.97778E-07   -0.98259E-07  1792   0.139E-06-0.208E-08
CGA:  15    -0.447198315935E+03   -0.32393E-07   -0.33064E-07  1792   0.396E-07 0.313E-08
CGA:  16    -0.447198315945E+03   -0.94660E-08   -0.10003E-07  1792   0.170E-07 0.380E-09
  35 F= -.44719832E+03 E0= -.44719832E+03  d E =-.125885E-10
       N       E                     dE             d eps       ncg     rms          ort
SDA:   1    -0.447071783367E+03    0.12653E+00    0.00000E+00  1792   0.222E+00 0.000E+00
CGA:   2    -0.447167000180E+03   -0.95217E-01   -0.94882E-01  1792   0.568E-01 0.169E-02
CGA:   3    -0.447181927646E+03   -0.14927E-01   -0.14923E-01  1792   0.104E-01-0.833E-04
CGA:   4    -0.447184808896E+03   -0.28813E-02   -0.28812E-02  1792   0.294E-02-0.607E-05
CGA:   5    -0.447185708436E+03   -0.89954E-03   -0.89948E-03  1792   0.113E-02 0.184E-05
CGA:   6    -0.447186092812E+03   -0.38438E-03   -0.38424E-03  1792   0.547E-03 0.268E-05
CGA:   7    -0.447186226797E+03   -0.13399E-03   -0.13401E-03  1792   0.275E-03 0.569E-06
CGA:   8    -0.447186285339E+03   -0.58542E-04   -0.58529E-04  1792   0.815E-04-0.185E-06
CGA:   9    -0.447186304626E+03   -0.19287E-04   -0.19288E-04  1792   0.249E-04 0.221E-07
CGA:  10    -0.447186310498E+03   -0.58724E-05   -0.58772E-05  1792   0.767E-05 0.967E-07
CGA:  11    -0.447186312321E+03   -0.18227E-05   -0.18218E-05  1792   0.246E-05-0.361E-07
CGA:  12    -0.447186312953E+03   -0.63242E-06   -0.63180E-06  1792   0.104E-05-0.696E-07
CGA:  13    -0.447186313202E+03   -0.24903E-06   -0.24837E-06  1792   0.469E-06-0.435E-07
CGA:  14    -0.447186313298E+03   -0.95992E-07   -0.95231E-07  1792   0.194E-06-0.201E-07
CGA:  15    -0.447186313343E+03   -0.44194E-07   -0.44207E-07  1792   0.812E-07-0.176E-07
CGA:  16    -0.447186313359E+03   -0.16447E-07   -0.16665E-07  1792   0.325E-07-0.739E-08
CGA:  17    -0.447186313365E+03   -0.63337E-08   -0.67656E-08  1792   0.131E-07-0.248E-08
  36 F= -.44718631E+03 E0= -.44718631E+03  d E =-.101878E-10
       N       E                     dE             d eps       ncg     rms          ort
SDA:   1    -0.446912279756E+03    0.27403E+00    0.00000E+00  1792   0.547E+00 0.000E+00
CGA:   2    -0.447123822425E+03   -0.21154E+00   -0.21260E+00  1792   0.177E+00-0.664E-02
CGA:   3    -0.447171450242E+03   -0.47628E-01   -0.47625E-01  1792   0.236E-01 0.285E-03
CGA:   4    -0.447178285086E+03   -0.68348E-02   -0.68345E-02  1792   0.731E-02 0.165E-04
CGA:   5    -0.447180717829E+03   -0.24327E-02   -0.24330E-02  1792   0.261E-02-0.167E-05
CGA:   6    -0.447181735463E+03   -0.10176E-02   -0.10182E-02  1792   0.115E-02-0.516E-05
CGA:   7    -0.447182080169E+03   -0.34471E-03   -0.34471E-03  1792   0.385E-03-0.201E-06
CGA:   8    -0.447182172196E+03   -0.92027E-04   -0.92037E-04  1792   0.983E-04 0.270E-06
CGA:   9    -0.447182197327E+03   -0.25131E-04   -0.25128E-04  1792   0.253E-04-0.170E-06
CGA:  10    -0.447182203493E+03   -0.61656E-05   -0.61647E-05  1792   0.837E-05-0.445E-07
CGA:  11    -0.447182205597E+03   -0.21036E-05   -0.21043E-05  1792   0.248E-05 0.992E-08
CGA:  12    -0.447182206273E+03   -0.67599E-06   -0.67673E-06  1792   0.984E-06 0.355E-07
CGA:  13    -0.447182206512E+03   -0.23928E-06   -0.24107E-06  1792   0.359E-06 0.375E-07
CGA:  14    -0.447182206603E+03   -0.90815E-07   -0.91896E-07  1792   0.132E-06 0.212E-07
CGA:  15    -0.447182206635E+03   -0.32283E-07   -0.33113E-07  1792   0.465E-07 0.877E-08
CGA:  16    -0.447182206647E+03   -0.11922E-07   -0.12544E-07  1792   0.175E-07 0.114E-08
CGA:  17    -0.447182206651E+03   -0.45147E-08   -0.52849E-08  1792   0.963E-08-0.277E-08
  37 F= -.44718221E+03 E0= -.44718221E+03  d E =-.266409E-15
       N       E                     dE             d eps       ncg     rms          ort
SDA:   1    -0.447056050960E+03    0.12616E+00    0.00000E+00  1792   0.251E+00 0.000E+00
CGA:   2    -0.447156966461E+03   -0.10092E+00   -0.10075E+00  1792   0.885E-01 0.101E-02
CGA:   3    -0.447181421652E+03   -0.24455E-01   -0.24455E-01  1792   0.138E-01-0.387E-04
CGA:   4    -0.447185338657E+03   -0.39170E-02   -0.39171E-02  1792   0.454E-02-0.725E-05
CGA:   5    -0.447186816328E+03   -0.14777E-02   -0.14776E-02  1792   0.191E-02 0.101E-05
CGA:   6    -0.447187484521E+03   -0.66819E-03   -0.66797E-03  1792   0.806E-03 0.331E-05
CGA:   7    -0.447187731915E+03   -0.24739E-03   -0.24738E-03  1792   0.271E-03 0.466E-06
CGA:   8    -0.447187800274E+03   -0.68358E-04   -0.68347E-04  1792   0.796E-04-0.387E-06
CGA:   9    -0.447187819427E+03   -0.19153E-04   -0.19150E-04  1792   0.222E-04-0.699E-07
CGA:  10    -0.447187824870E+03   -0.54429E-05   -0.54419E-05  1792   0.648E-05-0.440E-07
CGA:  11    -0.447187826516E+03   -0.16466E-05   -0.16455E-05  1792   0.226E-05-0.709E-07
CGA:  12    -0.447187827068E+03   -0.55160E-06   -0.54992E-06  1792   0.912E-06-0.701E-07
CGA:  13    -0.447187827308E+03   -0.24048E-06   -0.24099E-06  1792   0.366E-06-0.408E-07
CGA:  14    -0.447187827409E+03   -0.10122E-06   -0.10232E-06  1792   0.146E-06-0.258E-07
CGA:  15    -0.447187827447E+03   -0.37606E-07   -0.38316E-07  1792   0.578E-07-0.108E-07
CGA:  16    -0.447187827461E+03   -0.13835E-07   -0.14511E-07  1792   0.235E-07-0.278E-08
CGA:  17    -0.447187827465E+03   -0.46457E-08   -0.52494E-08  1792   0.751E-08 0.127E-08
  38 F= -.44718783E+03 E0= -.44718783E+03  d E =-.565910E-15
       N       E                     dE             d eps       ncg     rms          ort
SDA:   1    -0.446930551287E+03    0.25728E+00    0.00000E+00  1792   0.491E+00 0.000E+00
CGA:   2    -0.447126328100E+03   -0.19578E+00   -0.19569E+00  1792   0.165E+00 0.520E-03
CGA:   3    -0.447174404332E+03   -0.48076E-01   -0.48077E-01  1792   0.240E-01-0.420E-04
CGA:   4    -0.447182234199E+03   -0.78299E-02   -0.78301E-02  1792   0.924E-02-0.521E-05
CGA:   5    -0.447185792427E+03   -0.35582E-02   -0.35585E-02  1792   0.394E-02-0.226E-05
CGA:   6    -0.447187287070E+03   -0.14946E-02   -0.14947E-02  1792   0.141E-02-0.438E-07
CGA:   7    -0.447187694597E+03   -0.40753E-03   -0.40753E-03  1792   0.376E-03-0.220E-06
CGA:   8    -0.447187794925E+03   -0.10033E-03   -0.10033E-03  1792   0.879E-04-0.161E-06
CGA:   9    -0.447187819277E+03   -0.24352E-04   -0.24351E-04  1792   0.228E-04-0.969E-07
CGA:  10    -0.447187826155E+03   -0.68788E-05   -0.68801E-05  1792   0.703E-05-0.620E-07
CGA:  11    -0.447187828319E+03   -0.21634E-05   -0.21647E-05  1792   0.248E-05-0.427E-07
CGA:  12    -0.447187829090E+03   -0.77154E-06   -0.77249E-06  1792   0.105E-05-0.197E-07
CGA:  13    -0.447187829376E+03   -0.28577E-06   -0.28622E-06  1792   0.399E-06-0.374E-08
CGA:  14    -0.447187829484E+03   -0.10815E-06   -0.10868E-06  1792   0.142E-06-0.111E-08
CGA:  15    -0.447187829524E+03   -0.39796E-07   -0.40399E-07  1792   0.502E-07-0.443E-08
CGA:  16    -0.447187829538E+03   -0.13559E-07   -0.14134E-07  1792   0.192E-07-0.174E-08
CGA:  17    -0.447187829542E+03   -0.47767E-08   -0.53769E-08  1792   0.915E-08-0.201E-08
  39 F= -.44718783E+03 E0= -.44718783E+03  d E =-.629028E-15
       N       E                     dE             d eps       ncg     rms          ort
SDA:   1    -0.447076530538E+03    0.11130E+00    0.00000E+00  1792   0.232E+00 0.000E+00
CGA:   2    -0.447171773739E+03   -0.95243E-01   -0.95166E-01  1792   0.676E-01 0.505E-03
CGA:   3    -0.447190516297E+03   -0.18743E-01   -0.18741E-01  1792   0.103E-01-0.415E-04
CGA:   4    -0.447193904665E+03   -0.33884E-02   -0.33886E-02  1792   0.356E-02-0.606E-05
CGA:   5    -0.447195172510E+03   -0.12678E-02   -0.12679E-02  1792   0.151E-02-0.301E-06
CGA:   6    -0.447195741411E+03   -0.56890E-03   -0.56887E-03  1792   0.643E-03 0.512E-06
CGA:   7    -0.447195909322E+03   -0.16791E-03   -0.16792E-03  1792   0.206E-03 0.245E-06
CGA:   8    -0.447195959323E+03   -0.50001E-04   -0.49998E-04  1792   0.491E-04-0.530E-07
CGA:   9    -0.447195972432E+03   -0.13110E-04   -0.13106E-04  1792   0.138E-04-0.151E-06
CGA:  10    -0.447195975849E+03   -0.34161E-05   -0.34146E-05  1792   0.438E-05-0.400E-07
CGA:  11    -0.447195976995E+03   -0.11466E-05   -0.11465E-05  1792   0.155E-05-0.212E-07
CGA:  12    -0.447195977400E+03   -0.40512E-06   -0.40553E-06  1792   0.607E-06-0.458E-08
CGA:  13    -0.447195977569E+03   -0.16886E-06   -0.16951E-06  1792   0.212E-06 0.691E-08
CGA:  14    -0.447195977630E+03   -0.60638E-07   -0.61174E-07  1792   0.814E-07 0.418E-08
CGA:  15    -0.447195977651E+03   -0.20773E-07   -0.21365E-07  1792   0.309E-07 0.172E-08
CGA:  16    -0.447195977659E+03   -0.80363E-08   -0.86212E-08  1792   0.132E-07-0.218E-08
  40 F= -.44719598E+03 E0= -.44719598E+03  d E =-.128148E-11
       N       E                     dE             d eps       ncg     rms          ort
SDA:   1    -0.446972324893E+03    0.22365E+00    0.00000E+00  1792   0.439E+00 0.000E+00
CGA:   2    -0.447157974614E+03   -0.18565E+00   -0.18567E+00  1792   0.943E-01-0.131E-03
CGA:   3    -0.447184846061E+03   -0.26871E-01   -0.26872E-01  1792   0.180E-01 0.202E-04
CGA:   4    -0.447190052229E+03   -0.52062E-02   -0.52061E-02  1792   0.482E-02-0.713E-05
CGA:   5    -0.447191653206E+03   -0.16010E-02   -0.16011E-02  1792   0.198E-02-0.123E-05
CGA:   6    -0.447192385344E+03   -0.73214E-03   -0.73218E-03  1792   0.991E-03-0.613E-06
CGA:   7    -0.447192652840E+03   -0.26750E-03   -0.26748E-03  1792   0.322E-03-0.443E-06
CGA:   8    -0.447192736071E+03   -0.83231E-04   -0.83235E-04  1792   0.754E-04 0.901E-07
CGA:   9    -0.447192755300E+03   -0.19229E-04   -0.19231E-04  1792   0.183E-04 0.269E-07
CGA:  10    -0.447192759843E+03   -0.45425E-05   -0.45435E-05  1792   0.542E-05 0.113E-07
CGA:  11    -0.447192761340E+03   -0.14969E-05   -0.14976E-05  1792   0.177E-05 0.739E-08
CGA:  12    -0.447192761835E+03   -0.49556E-06   -0.49629E-06  1792   0.676E-06 0.901E-08
CGA:  13    -0.447192762023E+03   -0.18745E-06   -0.18799E-06  1792   0.273E-06 0.102E-08
CGA:  14    -0.447192762095E+03   -0.72159E-07   -0.72736E-07  1792   0.100E-06 0.114E-08
CGA:  15    -0.447192762121E+03   -0.25841E-07   -0.26358E-07  1792   0.379E-07-0.139E-08
CGA:  16    -0.447192762130E+03   -0.95715E-08   -0.10102E-07  1792   0.168E-07-0.461E-08
  41 F= -.44719276E+03 E0= -.44719276E+03  d E =-.209853E-13
       N       E                     dE             d eps       ncg     rms          ort
SDA:   1    -0.447078173092E+03    0.11459E+00    0.00000E+00  1792   0.227E+00 0.000E+00
CGA:   2    -0.447173189454E+03   -0.95016E-01   -0.94976E-01  1792   0.596E-01 0.136E-03
CGA:   3    -0.447189818330E+03   -0.16629E-01   -0.16628E-01  1792   0.910E-02-0.525E-04
CGA:   4    -0.447192703608E+03   -0.28853E-02   -0.28853E-02  1792   0.316E-02-0.136E-05
CGA:   5    -0.447193801842E+03   -0.10982E-02   -0.10981E-02  1792   0.135E-02 0.320E-05
CGA:   6    -0.447194265732E+03   -0.46389E-03   -0.46382E-03  1792   0.619E-03 0.148E-05
CGA:   7    -0.447194417248E+03   -0.15152E-03   -0.15152E-03  1792   0.203E-03-0.375E-07
CGA:   8    -0.447194467162E+03   -0.49914E-04   -0.49887E-04  1792   0.592E-04-0.561E-06
CGA:   9    -0.447194481637E+03   -0.14475E-04   -0.14467E-04  1792   0.171E-04-0.186E-06
CGA:  10    -0.447194485854E+03   -0.42164E-05   -0.42176E-05  1792   0.477E-05 0.160E-07
CGA:  11    -0.447194487085E+03   -0.12313E-05   -0.12321E-05  1792   0.143E-05 0.128E-07
CGA:  12    -0.447194487477E+03   -0.39224E-06   -0.39278E-06  1792   0.531E-06-0.390E-08
CGA:  13    -0.447194487622E+03   -0.14452E-06   -0.14513E-06  1792   0.206E-06-0.749E-08
CGA:  14    -0.447194487672E+03   -0.50222E-07   -0.50848E-07  1792   0.766E-07 0.447E-08
CGA:  15    -0.447194487691E+03   -0.19099E-07   -0.19714E-07  1792   0.270E-07 0.149E-08
CGA:  16    -0.447194487698E+03   -0.66248E-08   -0.73227E-08  1792   0.105E-07 0.637E-09
  42 F= -.44719449E+03 E0= -.44719449E+03  d E =-.839273E-12
       N       E                     dE             d eps       ncg     rms          ort
SDA:   1    -0.446963916171E+03    0.23057E+00    0.00000E+00  1792   0.459E+00 0.000E+00
CGA:   2    -0.447153361040E+03   -0.18944E+00   -0.18943E+00  1792   0.107E+00 0.247E-03
CGA:   3    -0.447183634705E+03   -0.30274E-01   -0.30274E-01  1792   0.188E-01 0.605E-04
CGA:   4    -0.447189257532E+03   -0.56228E-02   -0.56230E-02  1792   0.541E-02-0.101E-04
CGA:   5    -0.447191167159E+03   -0.19096E-02   -0.19101E-02  1792   0.225E-02-0.666E-05
CGA:   6    -0.447192011605E+03   -0.84445E-03   -0.84446E-03  1792   0.107E-02-0.319E-06
CGA:   7    -0.447192305985E+03   -0.29438E-03   -0.29440E-03  1792   0.332E-03 0.964E-06
CGA:   8    -0.447192387739E+03   -0.81753E-04   -0.81776E-04  1792   0.779E-04 0.457E-06
CGA:   9    -0.447192407416E+03   -0.19677E-04   -0.19676E-04  1792   0.205E-04-0.264E-07
CGA:  10    -0.447192412586E+03   -0.51707E-05   -0.51706E-05  1792   0.566E-05-0.201E-07
CGA:  11    -0.447192414220E+03   -0.16339E-05   -0.16346E-05  1792   0.180E-05-0.352E-07
CGA:  12    -0.447192414740E+03   -0.51936E-06   -0.51994E-06  1792   0.740E-06 0.583E-08
CGA:  13    -0.447192414902E+03   -0.16234E-06   -0.16434E-06  1792   0.304E-06 0.221E-07
CGA:  14    -0.447192414983E+03   -0.80647E-07   -0.81428E-07  1792   0.103E-06 0.101E-07
CGA:  15    -0.447192415016E+03   -0.32953E-07   -0.34095E-07  1792   0.529E-07-0.131E-07
CGA:  16    -0.447192415027E+03   -0.11572E-07   -0.11777E-07  1792   0.225E-07-0.943E-08
CGA:  17    -0.447192415032E+03   -0.47512E-08   -0.54834E-08  1792   0.123E-07-0.714E-08
  43 F= -.44719242E+03 E0= -.44719242E+03  d E =-.868807E-13
